
  ___ ___ ___ _ _ _  
 |   |   |_  | | | | 
 | | | | | . | | | | 
 |__ |  _|___|_____|  25.7.0
 |___|_|             

User:   femisegvn@MacBookPro.home.local
Date:   Wed Jan 21 00:03:07 2026
Arch:   arm64
Pid:    32824
CWD:    /Users/femisegvn/Chem/bora-assignment
Python: 3.11.14
gpaw:   /Users/femisegvn/Coding/miniconda3/envs/bora-assignment/lib/python3.11/site-packages/gpaw
_gpaw:  /Users/femisegvn/Coding/miniconda3/envs/bora-assignment/lib/python3.11/site-packages/
        _gpaw.cpython-311-darwin.so
ase:    /Users/femisegvn/Coding/miniconda3/envs/bora-assignment/lib/python3.11/site-packages/ase (version 3.27.0)
numpy:  /Users/femisegvn/Coding/miniconda3/envs/bora-assignment/lib/python3.11/site-packages/numpy (version 2.4.1)
scipy:  /Users/femisegvn/Coding/miniconda3/envs/bora-assignment/lib/python3.11/site-packages/scipy (version 1.17.0)
libxc:  2.x.y
units:  Angstrom and eV
cores: 1
OpenMP: False
OMP_NUM_THREADS: 1

Input parameters:
  h: 0.25
  kpts: [5 5 1]
  mode: {ecut: 400.0,
         name: pw}

System changes: positions, numbers, cell, pbc, initial_charges, initial_magmoms 

Initialize ...

species:
  Na:
    name: Sodium
    id: 74d681ec425db66acd6a232eb07f04e6
    Z: 11.0
    valence: 7
    core: 4
    charge: 0.0
    file: /Users/femisegvn/Coding/miniconda3/envs/bora-assignment/lib/python3.11/site-packages/gpaw_data/setups/Na.LDA.gz
    compensation charges: {type: gauss,
                           rc: 0.37,
                           lmax: 2}
    cutoffs: {filter: 2.17,
              core: 2.59}
    projectors:
      #              energy  rcut
      - 3s(1.00)    -2.819   1.201
      - 2p(6.00)   -28.826   1.217
      - 3p(0.00)    -0.774   1.217
      -  s          24.392   1.201
      -  d           0.000   1.238
  
    # Using partial waves for Na as LCAO basis

Reference energy: -52784.502531  # eV

Spin-paired calculation

Convergence criteria:
 Maximum [total energy] change in last 3 cyles: 0.0005 eV / valence electron
 Maximum integral of absolute [dens]ity change: 0.0001 electrons / valence electron
 Maximum integral of absolute [eigenst]ate change: 4e-08 eV^2 / valence electron
 Maximum number of scf [iter]ations: 333
 (Square brackets indicate name in SCF output, whereas a 'c' in
 the SCF output indicates the quantity has converged.)

Symmetries present (total): 16

  ( 1  0  0)  ( 1  0  0)  ( 1  0  0)  ( 1  0  0)  ( 0  1  0)  ( 0  1  0)
  ( 0  1  0)  ( 0  1  0)  ( 0 -1  0)  ( 0 -1  0)  ( 1  0  0)  ( 1  0  0)
  ( 0  0  1)  ( 0  0 -1)  ( 0  0  1)  ( 0  0 -1)  ( 0  0  1)  ( 0  0 -1)

  ( 0  1  0)  ( 0  1  0)  ( 0 -1  0)  ( 0 -1  0)  ( 0 -1  0)  ( 0 -1  0)
  (-1  0  0)  (-1  0  0)  ( 1  0  0)  ( 1  0  0)  (-1  0  0)  (-1  0  0)
  ( 0  0  1)  ( 0  0 -1)  ( 0  0  1)  ( 0  0 -1)  ( 0  0  1)  ( 0  0 -1)

  (-1  0  0)  (-1  0  0)  (-1  0  0)  (-1  0  0)
  ( 0  1  0)  ( 0  1  0)  ( 0 -1  0)  ( 0 -1  0)
  ( 0  0  1)  ( 0  0 -1)  ( 0  0  1)  ( 0  0 -1)

25 k-points: 5 x 5 x 1 Monkhorst-Pack grid
6 k-points in the irreducible part of the Brillouin zone
       k-points in crystal coordinates                weights
   0:     0.00000000    0.00000000    0.00000000          1/25
   1:     0.20000000    0.00000000    0.00000000          4/25
   2:     0.20000000    0.20000000    0.00000000          4/25
   3:     0.40000000    0.00000000    0.00000000          4/25
   4:     0.40000000    0.20000000    0.00000000          8/25
   5:     0.40000000    0.40000000    0.00000000          4/25

Wave functions: Plane wave expansion
  Cutoff energy: 400.000 eV
  Number of coefficients (min, max): 15882, 15914
  Pulay-stress correction: 0.000000 eV/Ang^3 (de/decut=0.000000)
  Using Numpy's FFT
  ScaLapack parameters: grid=1x1, blocksize=None
  Wavefunction extrapolation:
    Improved wavefunction reuse through dual PAW basis 

Occupation numbers: Fermi-Dirac:
  width: 0.1000  # eV
 

Eigensolver
   Davidson(niter=2) 

Densities:
  Coarse grid: 35*35*49 grid
  Fine grid: 70*70*98 grid
  Total Charge: 0.000000 

Density mixing:
  Method: separate
  Backend: pulay
  Linear mixing parameter: 0.05
  old densities: 5
  Damping of long wavelength oscillations: 50 

Hamiltonian:
  XC and Coulomb potentials evaluated on a 70*70*98 grid
  Using the LDA Exchange-Correlation functional
  External potential:
    NoExternalPotential
 

Memory estimate:
  Process memory now: 1100.30 MiB
  Calculator: 145.35 MiB
    Density: 27.45 MiB
      Arrays: 11.91 MiB
      Localized functions: 10.97 MiB
      Mixer: 4.58 MiB
    Hamiltonian: 8.01 MiB
      Arrays: 7.79 MiB
      XC: 0.00 MiB
      Poisson: 0.00 MiB
      vbar: 0.22 MiB
    Wavefunctions: 109.89 MiB
      Arrays psit_nG: 80.13 MiB
      Eigensolver: 15.03 MiB
      Projections: 0.79 MiB
      Projectors: 10.19 MiB
      PW-descriptor: 3.75 MiB

Total number of cores used: 1

Number of atoms: 12
Number of atomic orbitals: 84
Number of bands in calculation: 55
Number of valence electrons: 84
Bands to converge: occupied

... initialized

Initializing position-dependent things.

Density initialized from atomic densities
Creating initial wave functions:
  55 bands from LCAO basis set

      .--------------------.  
     /|                    |  
    / |                    |  
   /  |                    |  
  /   |                    |  
 *    |                    |  
 |    |                    |  
 |  Na|       Na           |  
 |    |                    |  
 |    |   Na        Na     |  
 Na   |     Na             |  
 |    | Na        Na       |  
 |    |                    |  
 |  Na|       Na           |  
 |    |                    |  
 Na   .-----Na-------------.  
 |   /                    /   
 |  /                    /    
 | /                    /     
 |/                    /      
 *--------------------*       

Atomic positions and initial magnetic moments

Positions:
   0 Na     0.000000    0.000000    4.000000    ( 0.0000,  0.0000,  0.0000)
   1 Na     4.230000    0.000000    4.000000    ( 0.0000,  0.0000,  0.0000)
   2 Na     0.000000    4.230000    4.000000    ( 0.0000,  0.0000,  0.0000)
   3 Na     4.230000    4.230000    4.000000    ( 0.0000,  0.0000,  0.0000)
   4 Na     2.115000    2.115000    6.115000    ( 0.0000,  0.0000,  0.0000)
   5 Na     6.345000    2.115000    6.115000    ( 0.0000,  0.0000,  0.0000)
   6 Na     2.115000    6.345000    6.115000    ( 0.0000,  0.0000,  0.0000)
   7 Na     6.345000    6.345000    6.115000    ( 0.0000,  0.0000,  0.0000)
   8 Na     0.000000    0.000000    8.230000    ( 0.0000,  0.0000,  0.0000)
   9 Na     4.230000    0.000000    8.230000    ( 0.0000,  0.0000,  0.0000)
  10 Na     0.000000    4.230000    8.230000    ( 0.0000,  0.0000,  0.0000)
  11 Na     4.230000    4.230000    8.230000    ( 0.0000,  0.0000,  0.0000)

Unit cell:
           periodic     x           y           z      points  spacing
  1. axis:    yes    8.460000    0.000000    0.000000    35     0.2417
  2. axis:    yes    0.000000    8.460000    0.000000    35     0.2417
  3. axis:    no     0.000000    0.000000   12.230000    49     0.2496

  Lengths:   8.460000   8.460000  12.230000
  Angles:   90.000000  90.000000  90.000000

Effective grid spacing dv^(1/3) = 0.2443

     iter     time        total  log10-change:
                         energy   eigst   dens
iter:   1 00:03:19   -15.438154
iter:   2 00:03:22   -15.397633   -1.30  -1.46
iter:   3 00:03:25   -15.185313   -1.79  -1.50
iter:   4 00:03:28   -15.185359   -2.45  -1.81
iter:   5 00:03:31   -15.185206c  -2.59  -1.83
iter:   6 00:03:34   -15.171057c  -3.29  -2.30
iter:   7 00:03:37   -15.171770c  -3.88  -2.88
iter:   8 00:03:40   -15.164691c  -3.77  -2.88
iter:   9 00:03:42   -15.164332c  -4.48  -3.41
iter:  10 00:03:45   -15.164356c  -5.30  -3.45
iter:  11 00:03:48   -15.164368c  -5.06  -3.46
iter:  12 00:03:50   -15.164432c  -5.62  -3.25
iter:  13 00:03:53   -15.164442c  -5.75  -3.96
iter:  14 00:03:56   -15.164444c  -6.70  -4.51c
iter:  15 00:03:58   -15.164446c  -7.23  -4.46c
iter:  16 00:04:01   -15.164439c  -7.60c -4.45c

Converged after 16 iterations.

Dipole moment: (0.000000, 0.000000, 0.000000) |e|*Ang

Energy contributions relative to reference atoms: (reference = -52784.502531)

Kinetic:         +4.304056
Potential:       -4.822509
External:        +0.000000
XC:             -14.057417
Entropy (-ST):   -0.208614
Local:           -0.484263
SIC:             +0.000000
--------------------------
Free energy:    -15.268746
Extrapolated:   -15.164439

Showing only first 2 kpts
 Kpt  Band  Eigenvalues  Occupancy
  0    40     -1.67459    1.99229
  0    41     -1.67459    1.99229
  0    42     -0.94582    0.30036
  0    43     -0.34474    0.00087

  1    40     -1.59167    1.98242
  1    41     -1.07325    0.77450
  1    42     -0.86334    0.14378
  1    43     -0.83448    0.10971


Fermi level: -1.11914

No gap
No difference between direct/indirect transitions

Forces in eV/Ang:
  0 Na    0.00000   -0.00000    0.10128
  1 Na    0.00000    0.00000    0.10129
  2 Na   -0.00000    0.00000    0.10129
  3 Na   -0.00000   -0.00000    0.10128
  4 Na   -0.00014   -0.00014    0.00000
  5 Na    0.00014   -0.00014    0.00000
  6 Na   -0.00014    0.00014    0.00000
  7 Na    0.00014    0.00014    0.00000
  8 Na    0.00000   -0.00000   -0.10128
  9 Na   -0.00000    0.00000   -0.10129
 10 Na    0.00000    0.00000   -0.10129
 11 Na   -0.00000    0.00000   -0.10128

System changes: positions 

Initializing position-dependent things.

Density initialized from wave functions
      .--------------------.  
     /|                    |  
    / |                    |  
   /  |                    |  
  /   |                    |  
 *    |                    |  
 |    |                    |  
 |  Na|       Na           |  
 |    |                    |  
 |    |   Na         Na    |  
 Na   |     Na             |  
 |    |Na         Na       |  
 |    |                    |  
 |  Na|       Na           |  
 |    |                    |  
 Na   .-----Na-------------.  
 |   /                    /   
 |  /                    /    
 | /                    /     
 |/                    /      
 *--------------------*       

Atomic positions and initial magnetic moments

Positions:
   0 Na     0.000000   -0.000000    4.001447    ( 0.0000,  0.0000,  0.0000)
   1 Na     4.230000    0.000000    4.001447    ( 0.0000,  0.0000,  0.0000)
   2 Na    -0.000000    4.230000    4.001447    ( 0.0000,  0.0000,  0.0000)
   3 Na     4.230000    4.230000    4.001447    ( 0.0000,  0.0000,  0.0000)
   4 Na     2.114998    2.114998    6.115000    ( 0.0000,  0.0000,  0.0000)
   5 Na     6.345002    2.114998    6.115000    ( 0.0000,  0.0000,  0.0000)
   6 Na     2.114998    6.345002    6.115000    ( 0.0000,  0.0000,  0.0000)
   7 Na     6.345002    6.345002    6.115000    ( 0.0000,  0.0000,  0.0000)
   8 Na     0.000000   -0.000000    8.228553    ( 0.0000,  0.0000,  0.0000)
   9 Na     4.230000    0.000000    8.228553    ( 0.0000,  0.0000,  0.0000)
  10 Na     0.000000    4.230000    8.228553    ( 0.0000,  0.0000,  0.0000)
  11 Na     4.230000    4.230000    8.228553    ( 0.0000,  0.0000,  0.0000)

Unit cell:
           periodic     x           y           z      points  spacing
  1. axis:    yes    8.460000    0.000000    0.000000    35     0.2417
  2. axis:    yes    0.000000    8.460000    0.000000    35     0.2417
  3. axis:    no     0.000000    0.000000   12.230000    49     0.2496

  Lengths:   8.460000   8.460000  12.230000
  Angles:   90.000000  90.000000  90.000000

Effective grid spacing dv^(1/3) = 0.2443

     iter     time        total  log10-change:
                         energy   eigst   dens
iter:   1 00:04:05   -15.165573   -5.52
iter:   2 00:04:07   -15.165591   -6.58  -3.52
iter:   3 00:04:10   -15.165734c  -6.48  -3.59
iter:   4 00:04:13   -15.165702c  -7.54c -4.29c

Converged after 4 iterations.

Dipole moment: (-0.000000, -0.000000, -0.000000) |e|*Ang

Energy contributions relative to reference atoms: (reference = -52784.502531)

Kinetic:         +4.521524
Potential:       -5.008701
External:        +0.000000
XC:             -14.087220
Entropy (-ST):   -0.208463
Local:           -0.487073
SIC:             +0.000000
--------------------------
Free energy:    -15.269934
Extrapolated:   -15.165702

Showing only first 2 kpts
 Kpt  Band  Eigenvalues  Occupancy
  0    40     -1.67561    1.99234
  0    41     -1.67561    1.99234
  0    42     -0.94511    0.29754
  0    43     -0.34455    0.00086

  1    40     -1.59270    1.98253
  1    41     -1.07315    0.77214
  1    42     -0.86262    0.14231
  1    43     -0.83561    0.11048


Fermi level: -1.11953

No gap
No difference between direct/indirect transitions

Forces in eV/Ang:
  0 Na    0.00000    0.00000    0.10208
  1 Na    0.00000    0.00000    0.10209
  2 Na   -0.00000    0.00000    0.10209
  3 Na    0.00000    0.00000    0.10208
  4 Na   -0.00014   -0.00014    0.00000
  5 Na    0.00014   -0.00014    0.00000
  6 Na   -0.00014    0.00014    0.00000
  7 Na    0.00014    0.00014    0.00000
  8 Na    0.00000    0.00000   -0.10208
  9 Na   -0.00000    0.00000   -0.10209
 10 Na   -0.00000    0.00000   -0.10209
 11 Na    0.00000    0.00000   -0.10208

System changes: positions 

Initializing position-dependent things.

Density initialized from wave functions
      .--------------------.  
     /|                    |  
    / |                    |  
   /  |                    |  
  /   |                    |  
 *    |                    |  
 |    |                    |  
 |    |                    |  
 |  Na|       Na           |  
 |    |   Na         Na    |  
 Na   |     Na             |  
 |    |Na         Na       |  
 |  Na|       Na           |  
 |    |                    |  
 |    |                    |  
 Na   .-----Na-------------.  
 |   /                    /   
 |  /                    /    
 | /                    /     
 |/                    /      
 *--------------------*       

Atomic positions and initial magnetic moments

Positions:
   0 Na     0.000000   -0.000000    4.186483    ( 0.0000,  0.0000,  0.0000)
   1 Na     4.230000   -0.000000    4.186506    ( 0.0000,  0.0000,  0.0000)
   2 Na     0.000000    4.230000    4.186506    ( 0.0000,  0.0000,  0.0000)
   3 Na     4.230000    4.230000    4.186482    ( 0.0000,  0.0000,  0.0000)
   4 Na     2.114752    2.114752    6.115000    ( 0.0000,  0.0000,  0.0000)
   5 Na     6.345248    2.114752    6.115000    ( 0.0000,  0.0000,  0.0000)
   6 Na     2.114752    6.345248    6.115000    ( 0.0000,  0.0000,  0.0000)
   7 Na     6.345248    6.345248    6.115000    ( 0.0000,  0.0000,  0.0000)
   8 Na    -0.000000    0.000000    8.043517    ( 0.0000,  0.0000,  0.0000)
   9 Na     4.230000    0.000000    8.043494    ( 0.0000,  0.0000,  0.0000)
  10 Na    -0.000000    4.230000    8.043494    ( 0.0000,  0.0000,  0.0000)
  11 Na     4.230000    4.230000    8.043518    ( 0.0000,  0.0000,  0.0000)

Unit cell:
           periodic     x           y           z      points  spacing
  1. axis:    yes    8.460000    0.000000    0.000000    35     0.2417
  2. axis:    yes    0.000000    8.460000    0.000000    35     0.2417
  3. axis:    no     0.000000    0.000000   12.230000    49     0.2496

  Lengths:   8.460000   8.460000  12.230000
  Angles:   90.000000  90.000000  90.000000

Effective grid spacing dv^(1/3) = 0.2443

     iter     time        total  log10-change:
                         energy   eigst   dens
iter:   1 00:04:16   -15.774573   -1.19
iter:   2 00:04:19   -15.623495   -2.15  -1.47
iter:   3 00:04:22   -15.279558   -2.30  -1.54
iter:   4 00:04:24   -15.274798   -3.22  -2.33
iter:   5 00:04:27   -15.279717c  -3.58  -2.42
iter:   6 00:04:30   -15.272680c  -3.91  -2.32
iter:   7 00:04:32   -15.272712c  -4.67  -3.24
iter:   8 00:04:35   -15.272241c  -4.71  -3.23
iter:   9 00:04:38   -15.272273c  -5.49  -3.83
iter:  10 00:04:40   -15.272270c  -6.28  -3.92
iter:  11 00:04:43   -15.272252c  -6.39  -3.89
iter:  12 00:04:46   -15.272252c  -7.27  -4.49c
iter:  13 00:04:48   -15.272255c  -7.81c -4.60c

Converged after 13 iterations.

Dipole moment: (0.000000, 0.000000, 0.000000) |e|*Ang

Energy contributions relative to reference atoms: (reference = -52784.502531)

Kinetic:         +8.451882
Potential:       -7.736185
External:        +0.000000
XC:             -15.407422
Entropy (-ST):   -0.193977
Local:           -0.483542
SIC:             +0.000000
--------------------------
Free energy:    -15.369243
Extrapolated:   -15.272255

Showing only first 2 kpts
 Kpt  Band  Eigenvalues  Occupancy
  0    40     -1.78822    1.99666
  0    41     -1.78822    1.99666
  0    42     -0.80426    0.06169
  0    43     -0.28116    0.00034

  1    40     -1.70558    1.99238
  1    41     -1.01975    0.43086
  1    42     -0.96348    0.27053
  1    43     -0.72218    0.02763


Fermi level: -1.14900

No gap
No difference between direct/indirect transitions

Forces in eV/Ang:
  0 Na    0.00000    0.00000    0.02477
  1 Na    0.00000    0.00000    0.02484
  2 Na   -0.00000    0.00000    0.02484
  3 Na   -0.00000   -0.00000    0.02494
  4 Na   -0.00011   -0.00011    0.00000
  5 Na    0.00011   -0.00011    0.00000
  6 Na   -0.00011    0.00011    0.00000
  7 Na    0.00011    0.00011    0.00000
  8 Na    0.00000   -0.00000   -0.02477
  9 Na    0.00000    0.00000   -0.02484
 10 Na    0.00000    0.00000   -0.02484
 11 Na   -0.00000    0.00000   -0.02494

System changes: positions 

Initializing position-dependent things.

Density initialized from wave functions
      .--------------------.  
     /|                    |  
    / |                    |  
   /  |                    |  
  /   |                    |  
 *    |                    |  
 |    |                    |  
 |    |                    |  
 |  Na|       Na           |  
 |    |   Na         Na    |  
 Na   |     Na             |  
 |    |Na         Na       |  
 |  Na|       Na           |  
 |    |                    |  
 |    |                    |  
 Na   .-----Na-------------.  
 |   /                    /   
 |  /                    /    
 | /                    /     
 |/                    /      
 *--------------------*       

Atomic positions and initial magnetic moments

Positions:
   0 Na     0.000000   -0.000000    4.246010    ( 0.0000,  0.0000,  0.0000)
   1 Na     4.230000   -0.000000    4.246041    ( 0.0000,  0.0000,  0.0000)
   2 Na     0.000000    4.230000    4.246041    ( 0.0000,  0.0000,  0.0000)
   3 Na     4.230000    4.230000    4.246012    ( 0.0000,  0.0000,  0.0000)
   4 Na     2.114671    2.114671    6.115000    ( 0.0000,  0.0000,  0.0000)
   5 Na     6.345329    2.114671    6.115000    ( 0.0000,  0.0000,  0.0000)
   6 Na     2.114671    6.345329    6.115000    ( 0.0000,  0.0000,  0.0000)
   7 Na     6.345329    6.345329    6.115000    ( 0.0000,  0.0000,  0.0000)
   8 Na    -0.000000    0.000000    7.983990    ( 0.0000,  0.0000,  0.0000)
   9 Na     4.230000   -0.000000    7.983959    ( 0.0000,  0.0000,  0.0000)
  10 Na    -0.000000    4.230000    7.983959    ( 0.0000,  0.0000,  0.0000)
  11 Na     4.230000    4.230000    7.983988    ( 0.0000,  0.0000,  0.0000)

Unit cell:
           periodic     x           y           z      points  spacing
  1. axis:    yes    8.460000    0.000000    0.000000    35     0.2417
  2. axis:    yes    0.000000    8.460000    0.000000    35     0.2417
  3. axis:    no     0.000000    0.000000   12.230000    49     0.2496

  Lengths:   8.460000   8.460000  12.230000
  Angles:   90.000000  90.000000  90.000000

Effective grid spacing dv^(1/3) = 0.2443

     iter     time        total  log10-change:
                         energy   eigst   dens
iter:   1 00:04:52   -15.328776   -2.12
iter:   2 00:04:55   -15.314942   -3.11  -1.97
iter:   3 00:04:57   -15.277925   -3.21  -2.03
iter:   4 00:05:00   -15.276744c  -4.22  -2.72
iter:   5 00:05:03   -15.277232c  -4.67  -2.91
iter:   6 00:05:05   -15.276521c  -4.86  -2.84
iter:   7 00:05:08   -15.276522c  -5.66  -3.68
iter:   8 00:05:11   -15.276485c  -5.80  -3.68
iter:   9 00:05:14   -15.276486c  -6.31  -3.89
iter:  10 00:05:16   -15.276485c  -7.21  -4.23c
iter:  11 00:05:19   -15.276484c  -7.18  -4.25c
iter:  12 00:05:22   -15.276484c  -7.65c -4.40c

Converged after 12 iterations.

Dipole moment: (-0.000000, 0.000000, 0.000000) |e|*Ang

Energy contributions relative to reference atoms: (reference = -52784.502531)

Kinetic:         +9.960904
Potential:       -8.788318
External:        +0.000000
XC:             -15.868484
Entropy (-ST):   -0.193188
Local:           -0.483991
SIC:             +0.000000
--------------------------
Free energy:    -15.373078
Extrapolated:   -15.276484

Showing only first 2 kpts
 Kpt  Band  Eigenvalues  Occupancy
  0    40     -1.82871    1.99743
  0    41     -1.82871    1.99743
  0    42     -0.76061    0.03507
  0    43     -0.26043    0.00024

  1    40     -1.74617    1.99414
  1    41     -1.00900    0.35248
  1    42     -1.00181    0.33207
  1    43     -0.70103    0.01948


Fermi level: -1.16321

No gap
No difference between direct/indirect transitions
