
  ___ ___ ___ _ _ _  
 |   |   |_  | | | | 
 | | | | | . | | | | 
 |__ |  _|___|_____|  25.7.0
 |___|_|             

User:   femisegvn@MacBookPro.home.local
Date:   Tue Jan 20 23:58:00 2026
Arch:   arm64
Pid:    32824
CWD:    /Users/femisegvn/Chem/bora-assignment
Python: 3.11.14
gpaw:   /Users/femisegvn/Coding/miniconda3/envs/bora-assignment/lib/python3.11/site-packages/gpaw
_gpaw:  /Users/femisegvn/Coding/miniconda3/envs/bora-assignment/lib/python3.11/site-packages/
        _gpaw.cpython-311-darwin.so
ase:    /Users/femisegvn/Coding/miniconda3/envs/bora-assignment/lib/python3.11/site-packages/ase (version 3.27.0)
numpy:  /Users/femisegvn/Coding/miniconda3/envs/bora-assignment/lib/python3.11/site-packages/numpy (version 2.4.1)
scipy:  /Users/femisegvn/Coding/miniconda3/envs/bora-assignment/lib/python3.11/site-packages/scipy (version 1.17.0)
libxc:  2.x.y
units:  Angstrom and eV
cores: 1
OpenMP: False
OMP_NUM_THREADS: 1

Input parameters:
  h: 0.25
  kpts: [1 1 1]
  mode: {ecut: 200.0,
         name: pw}

System changes: positions, numbers, cell, pbc, initial_charges, initial_magmoms 

Initialize ...

species:
  Na:
    name: Sodium
    id: 74d681ec425db66acd6a232eb07f04e6
    Z: 11.0
    valence: 7
    core: 4
    charge: 0.0
    file: /Users/femisegvn/Coding/miniconda3/envs/bora-assignment/lib/python3.11/site-packages/gpaw_data/setups/Na.LDA.gz
    compensation charges: {type: gauss,
                           rc: 0.37,
                           lmax: 2}
    cutoffs: {filter: 2.17,
              core: 2.59}
    projectors:
      #              energy  rcut
      - 3s(1.00)    -2.819   1.201
      - 2p(6.00)   -28.826   1.217
      - 3p(0.00)    -0.774   1.217
      -  s          24.392   1.201
      -  d           0.000   1.238
  
    # Using partial waves for Na as LCAO basis

Reference energy: -52784.502531  # eV

Spin-paired calculation

Convergence criteria:
 Maximum [total energy] change in last 3 cyles: 0.0005 eV / valence electron
 Maximum integral of absolute [dens]ity change: 0.0001 electrons / valence electron
 Maximum integral of absolute [eigenst]ate change: 4e-08 eV^2 / valence electron
 Maximum number of scf [iter]ations: 333
 (Square brackets indicate name in SCF output, whereas a 'c' in
 the SCF output indicates the quantity has converged.)

Symmetries present (total): 16

  ( 1  0  0)  ( 1  0  0)  ( 1  0  0)  ( 1  0  0)  ( 0  1  0)  ( 0  1  0)
  ( 0  1  0)  ( 0  1  0)  ( 0 -1  0)  ( 0 -1  0)  ( 1  0  0)  ( 1  0  0)
  ( 0  0  1)  ( 0  0 -1)  ( 0  0  1)  ( 0  0 -1)  ( 0  0  1)  ( 0  0 -1)

  ( 0  1  0)  ( 0  1  0)  ( 0 -1  0)  ( 0 -1  0)  ( 0 -1  0)  ( 0 -1  0)
  (-1  0  0)  (-1  0  0)  ( 1  0  0)  ( 1  0  0)  (-1  0  0)  (-1  0  0)
  ( 0  0  1)  ( 0  0 -1)  ( 0  0  1)  ( 0  0 -1)  ( 0  0  1)  ( 0  0 -1)

  (-1  0  0)  (-1  0  0)  (-1  0  0)  (-1  0  0)
  ( 0  1  0)  ( 0  1  0)  ( 0 -1  0)  ( 0 -1  0)
  ( 0  0  1)  ( 0  0 -1)  ( 0  0  1)  ( 0  0 -1)

1 k-point (Gamma)
1 k-point in the irreducible part of the Brillouin zone
       k-points in crystal coordinates                weights
   0:     0.00000000    0.00000000    0.00000000          1/1

Wave functions: Plane wave expansion
  Cutoff energy: 200.000 eV
  Number of coefficients: 5609 (reduced to 2805)
  Pulay-stress correction: 0.000000 eV/Ang^3 (de/decut=0.000000)
  Using Numpy's FFT
  ScaLapack parameters: grid=1x1, blocksize=None
  Wavefunction extrapolation:
    Improved wavefunction reuse through dual PAW basis 

Occupation numbers: Fermi-Dirac:
  width: 0.1000  # eV
 

Eigensolver
   Davidson(niter=2) 

Densities:
  Coarse grid: 35*35*49 grid
  Fine grid: 70*70*98 grid
  Total Charge: 0.000000 

Density mixing:
  Method: separate
  Backend: pulay
  Linear mixing parameter: 0.05
  old densities: 5
  Damping of long wavelength oscillations: 50 

Hamiltonian:
  XC and Coulomb potentials evaluated on a 70*70*98 grid
  Using the LDA Exchange-Correlation functional
  External potential:
    NoExternalPotential
 

Memory estimate:
  Process memory now: 719.48 MiB
  Calculator: 42.18 MiB
    Density: 27.45 MiB
      Arrays: 11.91 MiB
      Localized functions: 10.97 MiB
      Mixer: 4.58 MiB
    Hamiltonian: 8.01 MiB
      Arrays: 7.79 MiB
      XC: 0.00 MiB
      Poisson: 0.00 MiB
      vbar: 0.22 MiB
    Wavefunctions: 6.72 MiB
      Arrays psit_nG: 2.35 MiB
      Eigensolver: 2.80 MiB
      Projections: 0.07 MiB
      Projectors: 0.30 MiB
      PW-descriptor: 1.20 MiB

Total number of cores used: 1

Number of atoms: 12
Number of atomic orbitals: 84
Number of bands in calculation: 55
Number of valence electrons: 84
Bands to converge: occupied

... initialized

Initializing position-dependent things.

Density initialized from atomic densities
Creating initial wave functions:
  55 bands from LCAO basis set

      .--------------------.  
     /|                    |  
    / |                    |  
   /  |                    |  
  /   |                    |  
 *    |                    |  
 |    |                    |  
 |  Na|       Na           |  
 |    |                    |  
 |    |   Na        Na     |  
 Na   |     Na             |  
 |    | Na        Na       |  
 |    |                    |  
 |  Na|       Na           |  
 |    |                    |  
 Na   .-----Na-------------.  
 |   /                    /   
 |  /                    /    
 | /                    /     
 |/                    /      
 *--------------------*       

Atomic positions and initial magnetic moments

Positions:
   0 Na     0.000000    0.000000    4.000000    ( 0.0000,  0.0000,  0.0000)
   1 Na     4.230000    0.000000    4.000000    ( 0.0000,  0.0000,  0.0000)
   2 Na     0.000000    4.230000    4.000000    ( 0.0000,  0.0000,  0.0000)
   3 Na     4.230000    4.230000    4.000000    ( 0.0000,  0.0000,  0.0000)
   4 Na     2.115000    2.115000    6.115000    ( 0.0000,  0.0000,  0.0000)
   5 Na     6.345000    2.115000    6.115000    ( 0.0000,  0.0000,  0.0000)
   6 Na     2.115000    6.345000    6.115000    ( 0.0000,  0.0000,  0.0000)
   7 Na     6.345000    6.345000    6.115000    ( 0.0000,  0.0000,  0.0000)
   8 Na     0.000000    0.000000    8.230000    ( 0.0000,  0.0000,  0.0000)
   9 Na     4.230000    0.000000    8.230000    ( 0.0000,  0.0000,  0.0000)
  10 Na     0.000000    4.230000    8.230000    ( 0.0000,  0.0000,  0.0000)
  11 Na     4.230000    4.230000    8.230000    ( 0.0000,  0.0000,  0.0000)

Unit cell:
           periodic     x           y           z      points  spacing
  1. axis:    yes    8.460000    0.000000    0.000000    35     0.2417
  2. axis:    yes    0.000000    8.460000    0.000000    35     0.2417
  3. axis:    no     0.000000    0.000000   12.230000    49     0.2496

  Lengths:   8.460000   8.460000  12.230000
  Angles:   90.000000  90.000000  90.000000

Effective grid spacing dv^(1/3) = 0.2443

     iter     time        total  log10-change:
                         energy   eigst   dens
iter:   1 23:58:01   -13.621573
iter:   2 23:58:01   -13.410148   -2.48  -1.33
iter:   3 23:58:02   -12.787943   -2.04  -1.38
iter:   4 23:58:02   -12.734000   -3.14  -1.70
iter:   5 23:58:03   -12.727784   -3.50  -1.81
iter:   6 23:58:03   -12.736472c  -3.48  -2.04
iter:   7 23:58:03   -12.743657c  -4.42  -2.97
iter:   8 23:58:04   -12.727913c  -4.09  -2.61
iter:   9 23:58:04   -12.727720c  -5.08  -3.55
iter:  10 23:58:05   -12.727512c  -5.60  -3.48
iter:  11 23:58:05   -12.727899c  -5.88  -3.47
iter:  12 23:58:05   -12.728219c  -6.28  -3.89
iter:  13 23:58:06   -12.728025c  -6.53  -4.10c
iter:  14 23:58:06   -12.728241c  -6.81  -3.95
iter:  15 23:58:07   -12.728218c  -7.24  -4.36c
iter:  16 23:58:07   -12.728162c  -7.71c -4.43c

Converged after 16 iterations.

Dipole moment: (0.000000, 0.000000, -0.000000) |e|*Ang

Energy contributions relative to reference atoms: (reference = -52784.502531)

Kinetic:        +15.982932
Potential:      -14.774162
External:        +0.000000
XC:             -14.528617
Entropy (-ST):   -0.181116
Local:           +0.682243
SIC:             +0.000000
--------------------------
Free energy:    -12.818720
Extrapolated:   -12.728162

 Band  Eigenvalues  Occupancy
    0    -26.49111    2.00000
    1    -26.49106    2.00000
    2    -26.49080    2.00000
    3    -26.48996    2.00000
    4    -26.48840    2.00000
    5    -26.48817    2.00000
    6    -26.48812    2.00000
    7    -26.48798    2.00000
    8    -26.48283    2.00000
    9    -26.48283    2.00000
   10    -26.48259    2.00000
   11    -26.48259    2.00000
   12    -26.48256    2.00000
   13    -26.48256    2.00000
   14    -26.48167    2.00000
   15    -26.48167    2.00000
   16    -26.47688    2.00000
   17    -26.47688    2.00000
   18    -26.47671    2.00000
   19    -26.47671    2.00000
   20    -26.47667    2.00000
   21    -26.47667    2.00000
   22    -26.47653    2.00000
   23    -26.47653    2.00000
   24    -25.65980    2.00000
   25    -25.65963    2.00000
   26    -25.65963    2.00000
   27    -25.65923    2.00000
   28    -25.63792    2.00000
   29    -25.63792    2.00000
   30    -25.63751    2.00000
   31    -25.63751    2.00000
   32    -25.63183    2.00000
   33    -25.63183    2.00000
   34    -25.63170    2.00000
   35    -25.63170    2.00000
   36     -3.70887    2.00000
   37     -2.41995    1.99999
   38     -1.65328    1.97331
   39     -1.65327    1.97331
   40     -1.52125    1.90360
   41     -1.52125    1.90360
   42     -1.02608    0.24507
   43     -0.36108    0.00036
   44     -0.36108    0.00036
   45     -0.29924    0.00019
   46     -0.29924    0.00019
   47      0.25750    0.00000
   48      0.25750    0.00000
   49      0.56891    0.00000
   50      0.84019    0.00000
   51      0.84019    0.00000
   52      0.86661    0.00000
   53      1.21545    0.00000
   54      1.48437    0.00000

Fermi level: -1.22295

Gap: 0.495 eV
Transition (v -> c):
  (s=0, k=0, n=41, [0.00, 0.00, 0.00]) -> (s=0, k=0, n=42, [0.00, 0.00, 0.00])
No difference between direct/indirect transitions
Timing:                              incl.     excl.
-----------------------------------------------------------
Hamiltonian:                         0.082     0.002   0.0% |
 Atomic:                             0.037     0.000   0.0% |
  XC Correction:                     0.036     0.036   0.5% |
 Calculate atomic Hamiltonians:      0.021     0.021   0.3% |
 Communicate:                        0.000     0.000   0.0% |
 Initialize Hamiltonian:             0.000     0.000   0.0% |
 Poisson:                            0.001     0.001   0.0% |
 XC 3D grid:                         0.022     0.022   0.3% |
LCAO initialization:                 0.261     0.008   0.1% |
 LCAO eigensolver:                   0.058     0.000   0.0% |
  Calculate projections:             0.000     0.000   0.0% |
  DenseAtomicCorrection:             0.000     0.000   0.0% |
  Distribute overlap matrix:         0.000     0.000   0.0% |
  Orbital Layouts:                   0.001     0.001   0.0% |
  Potential matrix:                  0.057     0.057   0.9% |
 LCAO to grid:                       0.164     0.164   2.4% ||
 Set positions (LCAO WFS):           0.031     0.005   0.1% |
  Basic WFS set positions:           0.001     0.001   0.0% |
  Basis functions set positions:     0.000     0.000   0.0% |
  P tci:                             0.018     0.018   0.3% |
  ST tci:                            0.006     0.006   0.1% |
  mktci:                             0.002     0.002   0.0% |
PWDescriptor:                        0.001     0.001   0.0% |
SCF-cycle:                           6.222     0.004   0.1% |
 Davidson:                           4.024     0.224   3.3% ||
  Apply H:                           0.893     0.885  13.2% |----|
   HMM T:                            0.008     0.008   0.1% |
  Subspace diag:                     0.947     0.001   0.0% |
   calc_h_matrix:                    0.906     0.018   0.3% |
    Apply H:                         0.888     0.882  13.2% |----|
     HMM T:                          0.006     0.006   0.1% |
   diagonalize:                      0.009     0.009   0.1% |
   rotate_psi:                       0.031     0.031   0.5% |
  calc. matrices:                    1.877     0.096   1.4% ||
   Apply H:                          1.781     1.765  26.3% |----------|
    HMM T:                           0.016     0.016   0.2% |
  diagonalize:                       0.034     0.034   0.5% |
  rotate_psi:                        0.050     0.050   0.7% |
 Density:                            0.966     0.000   0.0% |
  Atomic density matrices:           0.012     0.012   0.2% |
  Mix:                               0.428     0.428   6.4% |--|
  Multipole moments:                 0.001     0.001   0.0% |
  Pseudo density:                    0.524     0.466   7.0% |--|
   Symmetrize density:               0.057     0.057   0.9% |
 Hamiltonian:                        1.224     0.019   0.3% |
  Atomic:                            0.547     0.006   0.1% |
   XC Correction:                    0.542     0.542   8.1% |--|
  Calculate atomic Hamiltonians:     0.316     0.316   4.7% |-|
  Communicate:                       0.000     0.000   0.0% |
  Poisson:                           0.008     0.008   0.1% |
  XC 3D grid:                        0.334     0.334   5.0% |-|
 Orthonormalize:                     0.004     0.000   0.0% |
  calc_s_matrix:                     0.001     0.001   0.0% |
  inverse-cholesky:                  0.000     0.000   0.0% |
  projections:                       0.002     0.002   0.0% |
  rotate_psi_s:                      0.001     0.001   0.0% |
Set symmetry:                        0.001     0.001   0.0% |
Other:                               0.135     0.135   2.0% ||
-----------------------------------------------------------
Total:                                         6.702 100.0%

Memory usage: 726.84 MiB
Date: Tue Jan 20 23:58:07 2026
