
  ___ ___ ___ _ _ _  
 |   |   |_  | | | | 
 | | | | | . | | | | 
 |__ |  _|___|_____|  25.7.0
 |___|_|             

User:   femisegvn@MacBookPro.home.local
Date:   Tue Jan 20 23:58:37 2026
Arch:   arm64
Pid:    32824
CWD:    /Users/femisegvn/Chem/bora-assignment
Python: 3.11.14
gpaw:   /Users/femisegvn/Coding/miniconda3/envs/bora-assignment/lib/python3.11/site-packages/gpaw
_gpaw:  /Users/femisegvn/Coding/miniconda3/envs/bora-assignment/lib/python3.11/site-packages/
        _gpaw.cpython-311-darwin.so
ase:    /Users/femisegvn/Coding/miniconda3/envs/bora-assignment/lib/python3.11/site-packages/ase (version 3.27.0)
numpy:  /Users/femisegvn/Coding/miniconda3/envs/bora-assignment/lib/python3.11/site-packages/numpy (version 2.4.1)
scipy:  /Users/femisegvn/Coding/miniconda3/envs/bora-assignment/lib/python3.11/site-packages/scipy (version 1.17.0)
libxc:  2.x.y
units:  Angstrom and eV
cores: 1
OpenMP: False
OMP_NUM_THREADS: 1

Input parameters:
  h: 0.25
  kpts: [2 2 1]
  mode: {ecut: 400.0,
         name: pw}

System changes: positions, numbers, cell, pbc, initial_charges, initial_magmoms 

Initialize ...

species:
  Na:
    name: Sodium
    id: 74d681ec425db66acd6a232eb07f04e6
    Z: 11.0
    valence: 7
    core: 4
    charge: 0.0
    file: /Users/femisegvn/Coding/miniconda3/envs/bora-assignment/lib/python3.11/site-packages/gpaw_data/setups/Na.LDA.gz
    compensation charges: {type: gauss,
                           rc: 0.37,
                           lmax: 2}
    cutoffs: {filter: 2.17,
              core: 2.59}
    projectors:
      #              energy  rcut
      - 3s(1.00)    -2.819   1.201
      - 2p(6.00)   -28.826   1.217
      - 3p(0.00)    -0.774   1.217
      -  s          24.392   1.201
      -  d           0.000   1.238
  
    # Using partial waves for Na as LCAO basis

Reference energy: -52784.502531  # eV

Spin-paired calculation

Convergence criteria:
 Maximum [total energy] change in last 3 cyles: 0.0005 eV / valence electron
 Maximum integral of absolute [dens]ity change: 0.0001 electrons / valence electron
 Maximum integral of absolute [eigenst]ate change: 4e-08 eV^2 / valence electron
 Maximum number of scf [iter]ations: 333
 (Square brackets indicate name in SCF output, whereas a 'c' in
 the SCF output indicates the quantity has converged.)

Symmetries present (total): 16

  ( 1  0  0)  ( 1  0  0)  ( 1  0  0)  ( 1  0  0)  ( 0  1  0)  ( 0  1  0)
  ( 0  1  0)  ( 0  1  0)  ( 0 -1  0)  ( 0 -1  0)  ( 1  0  0)  ( 1  0  0)
  ( 0  0  1)  ( 0  0 -1)  ( 0  0  1)  ( 0  0 -1)  ( 0  0  1)  ( 0  0 -1)

  ( 0  1  0)  ( 0  1  0)  ( 0 -1  0)  ( 0 -1  0)  ( 0 -1  0)  ( 0 -1  0)
  (-1  0  0)  (-1  0  0)  ( 1  0  0)  ( 1  0  0)  (-1  0  0)  (-1  0  0)
  ( 0  0  1)  ( 0  0 -1)  ( 0  0  1)  ( 0  0 -1)  ( 0  0  1)  ( 0  0 -1)

  (-1  0  0)  (-1  0  0)  (-1  0  0)  (-1  0  0)
  ( 0  1  0)  ( 0  1  0)  ( 0 -1  0)  ( 0 -1  0)
  ( 0  0  1)  ( 0  0 -1)  ( 0  0  1)  ( 0  0 -1)

4 k-points: 2 x 2 x 1 Monkhorst-Pack grid
1 k-point in the irreducible part of the Brillouin zone
       k-points in crystal coordinates                weights
   0:     0.25000000    0.25000000    0.00000000          4/4

Wave functions: Plane wave expansion
  Cutoff energy: 400.000 eV
  Number of coefficients (min, max): 15874, 15874
  Pulay-stress correction: 0.000000 eV/Ang^3 (de/decut=0.000000)
  Using Numpy's FFT
  ScaLapack parameters: grid=1x1, blocksize=None
  Wavefunction extrapolation:
    Improved wavefunction reuse through dual PAW basis 

Occupation numbers: Fermi-Dirac:
  width: 0.1000  # eV
 

Eigensolver
   Davidson(niter=2) 

Densities:
  Coarse grid: 35*35*49 grid
  Fine grid: 70*70*98 grid
  Total Charge: 0.000000 

Density mixing:
  Method: separate
  Backend: pulay
  Linear mixing parameter: 0.05
  old densities: 5
  Damping of long wavelength oscillations: 50 

Hamiltonian:
  XC and Coulomb potentials evaluated on a 70*70*98 grid
  Using the LDA Exchange-Correlation functional
  External potential:
    NoExternalPotential
 

Memory estimate:
  Process memory now: 875.80 MiB
  Calculator: 68.14 MiB
    Density: 27.45 MiB
      Arrays: 11.91 MiB
      Localized functions: 10.97 MiB
      Mixer: 4.58 MiB
    Hamiltonian: 8.01 MiB
      Arrays: 7.79 MiB
      XC: 0.00 MiB
      Poisson: 0.00 MiB
      vbar: 0.22 MiB
    Wavefunctions: 32.68 MiB
      Arrays psit_nG: 13.32 MiB
      Eigensolver: 15.00 MiB
      Projections: 0.13 MiB
      Projectors: 1.70 MiB
      PW-descriptor: 2.53 MiB

Total number of cores used: 1

Number of atoms: 12
Number of atomic orbitals: 84
Number of bands in calculation: 55
Number of valence electrons: 84
Bands to converge: occupied

... initialized

Initializing position-dependent things.

Density initialized from atomic densities
Creating initial wave functions:
  55 bands from LCAO basis set

      .--------------------.  
     /|                    |  
    / |                    |  
   /  |                    |  
  /   |                    |  
 *    |                    |  
 |    |                    |  
 |  Na|       Na           |  
 |    |                    |  
 |    |   Na        Na     |  
 Na   |     Na             |  
 |    | Na        Na       |  
 |    |                    |  
 |  Na|       Na           |  
 |    |                    |  
 Na   .-----Na-------------.  
 |   /                    /   
 |  /                    /    
 | /                    /     
 |/                    /      
 *--------------------*       

Atomic positions and initial magnetic moments

Positions:
   0 Na     0.000000    0.000000    4.000000    ( 0.0000,  0.0000,  0.0000)
   1 Na     4.230000    0.000000    4.000000    ( 0.0000,  0.0000,  0.0000)
   2 Na     0.000000    4.230000    4.000000    ( 0.0000,  0.0000,  0.0000)
   3 Na     4.230000    4.230000    4.000000    ( 0.0000,  0.0000,  0.0000)
   4 Na     2.115000    2.115000    6.115000    ( 0.0000,  0.0000,  0.0000)
   5 Na     6.345000    2.115000    6.115000    ( 0.0000,  0.0000,  0.0000)
   6 Na     2.115000    6.345000    6.115000    ( 0.0000,  0.0000,  0.0000)
   7 Na     6.345000    6.345000    6.115000    ( 0.0000,  0.0000,  0.0000)
   8 Na     0.000000    0.000000    8.230000    ( 0.0000,  0.0000,  0.0000)
   9 Na     4.230000    0.000000    8.230000    ( 0.0000,  0.0000,  0.0000)
  10 Na     0.000000    4.230000    8.230000    ( 0.0000,  0.0000,  0.0000)
  11 Na     4.230000    4.230000    8.230000    ( 0.0000,  0.0000,  0.0000)

Unit cell:
           periodic     x           y           z      points  spacing
  1. axis:    yes    8.460000    0.000000    0.000000    35     0.2417
  2. axis:    yes    0.000000    8.460000    0.000000    35     0.2417
  3. axis:    no     0.000000    0.000000   12.230000    49     0.2496

  Lengths:   8.460000   8.460000  12.230000
  Angles:   90.000000  90.000000  90.000000

Effective grid spacing dv^(1/3) = 0.2443

     iter     time        total  log10-change:
                         energy   eigst   dens
iter:   1 23:58:39   -15.199388
iter:   2 23:58:39   -15.187185   -1.30  -1.48
iter:   3 23:58:40   -15.011841   -1.78  -1.52
iter:   4 23:58:41   -15.019653   -2.42  -1.86
iter:   5 23:58:41   -15.012537c  -2.69  -1.87
iter:   6 23:58:42   -15.001442c  -3.37  -2.39
iter:   7 23:58:42   -14.999575c  -4.00  -2.91
iter:   8 23:58:43   -14.996382c  -3.93  -2.90
iter:   9 23:58:44   -14.996395c  -4.83  -3.43
iter:  10 23:58:44   -14.996484c  -5.05  -3.49
iter:  11 23:58:45   -14.996576c  -5.57  -3.45
iter:  12 23:58:45   -14.996563c  -5.60  -4.02c
iter:  13 23:58:46   -14.996570c  -6.69  -4.51c
iter:  14 23:58:46   -14.996570c  -7.26  -4.66c
iter:  15 23:58:47   -14.996560c  -7.60c -4.67c

Converged after 15 iterations.

Dipole moment: (0.000000, 0.000000, 0.000000) |e|*Ang

Energy contributions relative to reference atoms: (reference = -52784.502531)

Kinetic:         +4.618592
Potential:       -4.899369
External:        +0.000000
XC:             -14.073861
Entropy (-ST):   -0.315323
Local:           -0.484260
SIC:             +0.000000
--------------------------
Free energy:    -15.154221
Extrapolated:   -14.996560

 Band  Eigenvalues  Occupancy
    0    -26.54402    2.00000
    1    -26.54393    2.00000
    2    -26.54392    2.00000
    3    -26.54344    2.00000
    4    -26.54172    2.00000
    5    -26.54133    2.00000
    6    -26.54133    2.00000
    7    -26.54104    2.00000
    8    -26.52597    2.00000
    9    -26.52597    2.00000
   10    -26.52596    2.00000
   11    -26.52596    2.00000
   12    -26.52595    2.00000
   13    -26.52582    2.00000
   14    -26.52547    2.00000
   15    -26.52535    2.00000
   16    -26.52283    2.00000
   17    -26.52270    2.00000
   18    -26.52251    2.00000
   19    -26.52241    2.00000
   20    -26.52241    2.00000
   21    -26.52239    2.00000
   22    -26.52214    2.00000
   23    -26.52214    2.00000
   24    -26.20054    2.00000
   25    -26.20054    2.00000
   26    -26.20025    2.00000
   27    -26.20017    2.00000
   28    -26.19764    2.00000
   29    -26.19726    2.00000
   30    -26.19725    2.00000
   31    -26.19725    2.00000
   32    -26.19718    2.00000
   33    -26.19717    2.00000
   34    -26.19706    2.00000
   35    -26.19706    2.00000
   36     -3.61088    2.00000
   37     -2.54852    2.00000
   38     -2.54852    2.00000
   39     -2.15180    1.99994
   40     -1.50641    1.96490
   41     -1.10384    0.99971
   42     -1.10384    0.99971
   43     -0.67937    0.02826
   44     -0.47504    0.00371
   45     -0.47504    0.00371
   46     -0.07271    0.00007
   47      0.31886    0.00000
   48      0.34358    0.00000
   49      0.34358    0.00000
   50      0.79639    0.00000
   51      0.93876    0.00000
   52      0.93876    0.00000
   53      1.37132    0.00000
   54      1.49019    0.00000

Fermi level: -1.10390

Gap: 0.403 eV
Transition (v -> c):
  (s=0, k=0, n=40, [0.25, 0.25, 0.00]) -> (s=0, k=0, n=41, [0.25, 0.25, 0.00])
No difference between direct/indirect transitions
Timing:                              incl.     excl.
-----------------------------------------------------------
Hamiltonian:                         0.083     0.001   0.0% |
 Atomic:                             0.037     0.000   0.0% |
  XC Correction:                     0.036     0.036   0.4% |
 Calculate atomic Hamiltonians:      0.021     0.021   0.2% |
 Communicate:                        0.000     0.000   0.0% |
 Initialize Hamiltonian:             0.000     0.000   0.0% |
 Poisson:                            0.001     0.001   0.0% |
 XC 3D grid:                         0.022     0.022   0.2% |
LCAO initialization:                 1.493     0.008   0.1% |
 LCAO eigensolver:                   0.082     0.000   0.0% |
  Calculate projections:             0.000     0.000   0.0% |
  DenseAtomicCorrection:             0.001     0.001   0.0% |
  Distribute overlap matrix:         0.000     0.000   0.0% |
  Orbital Layouts:                   0.002     0.002   0.0% |
  Potential matrix:                  0.078     0.078   0.8% |
  Sum over cells:                    0.001     0.001   0.0% |
 LCAO to grid:                       1.377     1.377  13.3% |----|
 Set positions (LCAO WFS):           0.026     0.006   0.1% |
  Basic WFS set positions:           0.001     0.001   0.0% |
  Basis functions set positions:     0.000     0.000   0.0% |
  P tci:                             0.011     0.011   0.1% |
  ST tci:                            0.007     0.007   0.1% |
  mktci:                             0.002     0.002   0.0% |
PWDescriptor:                        0.002     0.002   0.0% |
SCF-cycle:                           8.624     0.004   0.0% |
 Davidson:                           6.207     0.833   8.1% |--|
  Apply H:                           1.015     0.995   9.6% |---|
   HMM T:                            0.019     0.019   0.2% |
  Subspace diag:                     1.317     0.001   0.0% |
   calc_h_matrix:                    1.139     0.128   1.2% |
    Apply H:                         1.012     0.989   9.6% |---|
     HMM T:                          0.023     0.023   0.2% |
   diagonalize:                      0.010     0.010   0.1% |
   rotate_psi:                       0.167     0.167   1.6% ||
  calc. matrices:                    2.630     0.644   6.2% |-|
   Apply H:                          1.986     1.947  18.8% |-------|
    HMM T:                           0.039     0.039   0.4% |
  diagonalize:                       0.093     0.093   0.9% |
  rotate_psi:                        0.319     0.319   3.1% ||
 Density:                            1.067     0.000   0.0% |
  Atomic density matrices:           0.013     0.013   0.1% |
  Mix:                               0.552     0.552   5.3% |-|
  Multipole moments:                 0.001     0.001   0.0% |
  Pseudo density:                    0.502     0.448   4.3% |-|
   Symmetrize density:               0.054     0.054   0.5% |
 Hamiltonian:                        1.324     0.016   0.2% |
  Atomic:                            0.504     0.005   0.0% |
   XC Correction:                    0.498     0.498   4.8% |-|
  Calculate atomic Hamiltonians:     0.500     0.500   4.8% |-|
  Communicate:                       0.000     0.000   0.0% |
  Poisson:                           0.007     0.007   0.1% |
  XC 3D grid:                        0.297     0.297   2.9% ||
 Orthonormalize:                     0.022     0.000   0.0% |
  calc_s_matrix:                     0.004     0.004   0.0% |
  inverse-cholesky:                  0.000     0.000   0.0% |
  projections:                       0.010     0.010   0.1% |
  rotate_psi_s:                      0.007     0.007   0.1% |
Set symmetry:                        0.001     0.001   0.0% |
Other:                               0.134     0.134   1.3% ||
-----------------------------------------------------------
Total:                                        10.337 100.0%

Memory usage: 939.17 MiB
Date: Tue Jan 20 23:58:47 2026
