
  ___ ___ ___ _ _ _  
 |   |   |_  | | | | 
 | | | | | . | | | | 
 |__ |  _|___|_____|  25.7.0
 |___|_|             

User:   femisegvn@MacBookPro.home.local
Date:   Tue Jan 20 23:58:47 2026
Arch:   arm64
Pid:    32824
CWD:    /Users/femisegvn/Chem/bora-assignment
Python: 3.11.14
gpaw:   /Users/femisegvn/Coding/miniconda3/envs/bora-assignment/lib/python3.11/site-packages/gpaw
_gpaw:  /Users/femisegvn/Coding/miniconda3/envs/bora-assignment/lib/python3.11/site-packages/
        _gpaw.cpython-311-darwin.so
ase:    /Users/femisegvn/Coding/miniconda3/envs/bora-assignment/lib/python3.11/site-packages/ase (version 3.27.0)
numpy:  /Users/femisegvn/Coding/miniconda3/envs/bora-assignment/lib/python3.11/site-packages/numpy (version 2.4.1)
scipy:  /Users/femisegvn/Coding/miniconda3/envs/bora-assignment/lib/python3.11/site-packages/scipy (version 1.17.0)
libxc:  2.x.y
units:  Angstrom and eV
cores: 1
OpenMP: False
OMP_NUM_THREADS: 1

Input parameters:
  h: 0.25
  kpts: [3 3 1]
  mode: {ecut: 400.0,
         name: pw}

System changes: positions, numbers, cell, pbc, initial_charges, initial_magmoms 

Initialize ...

species:
  Na:
    name: Sodium
    id: 74d681ec425db66acd6a232eb07f04e6
    Z: 11.0
    valence: 7
    core: 4
    charge: 0.0
    file: /Users/femisegvn/Coding/miniconda3/envs/bora-assignment/lib/python3.11/site-packages/gpaw_data/setups/Na.LDA.gz
    compensation charges: {type: gauss,
                           rc: 0.37,
                           lmax: 2}
    cutoffs: {filter: 2.17,
              core: 2.59}
    projectors:
      #              energy  rcut
      - 3s(1.00)    -2.819   1.201
      - 2p(6.00)   -28.826   1.217
      - 3p(0.00)    -0.774   1.217
      -  s          24.392   1.201
      -  d           0.000   1.238
  
    # Using partial waves for Na as LCAO basis

Reference energy: -52784.502531  # eV

Spin-paired calculation

Convergence criteria:
 Maximum [total energy] change in last 3 cyles: 0.0005 eV / valence electron
 Maximum integral of absolute [dens]ity change: 0.0001 electrons / valence electron
 Maximum integral of absolute [eigenst]ate change: 4e-08 eV^2 / valence electron
 Maximum number of scf [iter]ations: 333
 (Square brackets indicate name in SCF output, whereas a 'c' in
 the SCF output indicates the quantity has converged.)

Symmetries present (total): 16

  ( 1  0  0)  ( 1  0  0)  ( 1  0  0)  ( 1  0  0)  ( 0  1  0)  ( 0  1  0)
  ( 0  1  0)  ( 0  1  0)  ( 0 -1  0)  ( 0 -1  0)  ( 1  0  0)  ( 1  0  0)
  ( 0  0  1)  ( 0  0 -1)  ( 0  0  1)  ( 0  0 -1)  ( 0  0  1)  ( 0  0 -1)

  ( 0  1  0)  ( 0  1  0)  ( 0 -1  0)  ( 0 -1  0)  ( 0 -1  0)  ( 0 -1  0)
  (-1  0  0)  (-1  0  0)  ( 1  0  0)  ( 1  0  0)  (-1  0  0)  (-1  0  0)
  ( 0  0  1)  ( 0  0 -1)  ( 0  0  1)  ( 0  0 -1)  ( 0  0  1)  ( 0  0 -1)

  (-1  0  0)  (-1  0  0)  (-1  0  0)  (-1  0  0)
  ( 0  1  0)  ( 0  1  0)  ( 0 -1  0)  ( 0 -1  0)
  ( 0  0  1)  ( 0  0 -1)  ( 0  0  1)  ( 0  0 -1)

9 k-points: 3 x 3 x 1 Monkhorst-Pack grid
3 k-points in the irreducible part of the Brillouin zone
       k-points in crystal coordinates                weights
   0:     0.00000000    0.00000000    0.00000000          1/9
   1:     0.33333333    0.00000000    0.00000000          4/9
   2:     0.33333333    0.33333333    0.00000000          4/9

Wave functions: Plane wave expansion
  Cutoff energy: 400.000 eV
  Number of coefficients (min, max): 15892, 15902
  Pulay-stress correction: 0.000000 eV/Ang^3 (de/decut=0.000000)
  Using Numpy's FFT
  ScaLapack parameters: grid=1x1, blocksize=None
  Wavefunction extrapolation:
    Improved wavefunction reuse through dual PAW basis 

Occupation numbers: Fermi-Dirac:
  width: 0.1000  # eV
 

Eigensolver
   Davidson(niter=2) 

Densities:
  Coarse grid: 35*35*49 grid
  Fine grid: 70*70*98 grid
  Total Charge: 0.000000 

Density mixing:
  Method: separate
  Backend: pulay
  Linear mixing parameter: 0.05
  old densities: 5
  Damping of long wavelength oscillations: 50 

Hamiltonian:
  XC and Coulomb potentials evaluated on a 70*70*98 grid
  Using the LDA Exchange-Correlation functional
  External potential:
    NoExternalPotential
 

Memory estimate:
  Process memory now: 939.17 MiB
  Calculator: 99.03 MiB
    Density: 27.45 MiB
      Arrays: 11.91 MiB
      Localized functions: 10.97 MiB
      Mixer: 4.58 MiB
    Hamiltonian: 8.01 MiB
      Arrays: 7.79 MiB
      XC: 0.00 MiB
      Poisson: 0.00 MiB
      vbar: 0.22 MiB
    Wavefunctions: 63.56 MiB
      Arrays psit_nG: 40.04 MiB
      Eigensolver: 15.02 MiB
      Projections: 0.39 MiB
      Projectors: 5.09 MiB
      PW-descriptor: 3.02 MiB

Total number of cores used: 1

Number of atoms: 12
Number of atomic orbitals: 84
Number of bands in calculation: 55
Number of valence electrons: 84
Bands to converge: occupied

... initialized

Initializing position-dependent things.

Density initialized from atomic densities
Creating initial wave functions:
  55 bands from LCAO basis set

      .--------------------.  
     /|                    |  
    / |                    |  
   /  |                    |  
  /   |                    |  
 *    |                    |  
 |    |                    |  
 |  Na|       Na           |  
 |    |                    |  
 |    |   Na        Na     |  
 Na   |     Na             |  
 |    | Na        Na       |  
 |    |                    |  
 |  Na|       Na           |  
 |    |                    |  
 Na   .-----Na-------------.  
 |   /                    /   
 |  /                    /    
 | /                    /     
 |/                    /      
 *--------------------*       

Atomic positions and initial magnetic moments

Positions:
   0 Na     0.000000    0.000000    4.000000    ( 0.0000,  0.0000,  0.0000)
   1 Na     4.230000    0.000000    4.000000    ( 0.0000,  0.0000,  0.0000)
   2 Na     0.000000    4.230000    4.000000    ( 0.0000,  0.0000,  0.0000)
   3 Na     4.230000    4.230000    4.000000    ( 0.0000,  0.0000,  0.0000)
   4 Na     2.115000    2.115000    6.115000    ( 0.0000,  0.0000,  0.0000)
   5 Na     6.345000    2.115000    6.115000    ( 0.0000,  0.0000,  0.0000)
   6 Na     2.115000    6.345000    6.115000    ( 0.0000,  0.0000,  0.0000)
   7 Na     6.345000    6.345000    6.115000    ( 0.0000,  0.0000,  0.0000)
   8 Na     0.000000    0.000000    8.230000    ( 0.0000,  0.0000,  0.0000)
   9 Na     4.230000    0.000000    8.230000    ( 0.0000,  0.0000,  0.0000)
  10 Na     0.000000    4.230000    8.230000    ( 0.0000,  0.0000,  0.0000)
  11 Na     4.230000    4.230000    8.230000    ( 0.0000,  0.0000,  0.0000)

Unit cell:
           periodic     x           y           z      points  spacing
  1. axis:    yes    8.460000    0.000000    0.000000    35     0.2417
  2. axis:    yes    0.000000    8.460000    0.000000    35     0.2417
  3. axis:    no     0.000000    0.000000   12.230000    49     0.2496

  Lengths:   8.460000   8.460000  12.230000
  Angles:   90.000000  90.000000  90.000000

Effective grid spacing dv^(1/3) = 0.2443

     iter     time        total  log10-change:
                         energy   eigst   dens
iter:   1 23:58:53   -15.432927
iter:   2 23:58:54   -15.398518   -1.29  -1.46
iter:   3 23:58:56   -15.190663   -1.80  -1.50
iter:   4 23:58:57   -15.196524   -2.44  -1.82
iter:   5 23:58:59   -15.194088c  -2.62  -1.84
iter:   6 23:59:00   -15.183380c  -3.33  -2.37
iter:   7 23:59:02   -15.183025c  -3.93  -2.89
iter:   8 23:59:04   -15.177291c  -3.80  -2.89
iter:   9 23:59:06   -15.177097c  -4.48  -3.09
iter:  10 23:59:08   -15.177096c  -5.29  -3.61
iter:  11 23:59:10   -15.177094c  -5.85  -3.58
iter:  12 23:59:11   -15.177165c  -5.62  -3.57
iter:  13 23:59:13   -15.177192c  -6.03  -3.68
iter:  14 23:59:14   -15.177229c  -6.37  -3.67
iter:  15 23:59:16   -15.177174c  -5.18  -3.66
iter:  16 23:59:17   -15.177161c  -7.04  -4.46c
iter:  17 23:59:19   -15.177160c  -7.57c -4.90c

Converged after 17 iterations.

Dipole moment: (-0.000000, -0.000000, -0.000000) |e|*Ang

Energy contributions relative to reference atoms: (reference = -52784.502531)

Kinetic:         +4.528337
Potential:       -5.005054
External:        +0.000000
XC:             -14.107364
Entropy (-ST):   -0.217818
Local:           -0.484170
SIC:             +0.000000
--------------------------
Free energy:    -15.286068
Extrapolated:   -15.177160

Showing only first 2 kpts
 Kpt  Band  Eigenvalues  Occupancy
  0    40     -1.66394    1.97771
  0    41     -1.66394    1.97771
  0    42     -0.93985    0.11957
  0    43     -0.33910    0.00031

  1    40     -1.47456    1.86066
  1    41     -1.43410    1.79819
  1    42     -0.89144    0.07542
  1    43     -0.75643    0.02011


Fermi level: -1.21538

No gap
No difference between direct/indirect transitions
Timing:                              incl.     excl.
-----------------------------------------------------------
Hamiltonian:                         0.095     0.001   0.0% |
 Atomic:                             0.036     0.000   0.0% |
  XC Correction:                     0.036     0.036   0.1% |
 Calculate atomic Hamiltonians:      0.036     0.036   0.1% |
 Communicate:                        0.000     0.000   0.0% |
 Initialize Hamiltonian:             0.000     0.000   0.0% |
 Poisson:                            0.001     0.001   0.0% |
 XC 3D grid:                         0.021     0.021   0.1% |
LCAO initialization:                 4.168     0.007   0.0% |
 LCAO eigensolver:                   0.088     0.000   0.0% |
  Calculate projections:             0.001     0.001   0.0% |
  DenseAtomicCorrection:             0.002     0.002   0.0% |
  Distribute overlap matrix:         0.000     0.000   0.0% |
  Orbital Layouts:                   0.005     0.005   0.0% |
  Potential matrix:                  0.078     0.078   0.2% |
  Sum over cells:                    0.003     0.003   0.0% |
 LCAO to grid:                       4.032     4.032  12.7% |----|
 Set positions (LCAO WFS):           0.040     0.008   0.0% |
  Basic WFS set positions:           0.001     0.001   0.0% |
  Basis functions set positions:     0.000     0.000   0.0% |
  P tci:                             0.022     0.022   0.1% |
  ST tci:                            0.008     0.008   0.0% |
  mktci:                             0.002     0.002   0.0% |
PWDescriptor:                        0.004     0.004   0.0% |
SCF-cycle:                          27.235     0.007   0.0% |
 Davidson:                          23.056     3.113   9.8% |---|
  Apply H:                           3.855     3.787  12.0% |----|
   HMM T:                            0.067     0.067   0.2% |
  Subspace diag:                     4.885     0.003   0.0% |
   calc_h_matrix:                    4.240     0.445   1.4% ||
    Apply H:                         3.795     3.731  11.8% |----|
     HMM T:                          0.064     0.064   0.2% |
   diagonalize:                      0.038     0.038   0.1% |
   rotate_psi:                       0.604     0.604   1.9% ||
  calc. matrices:                    9.830     2.234   7.1% |--|
   Apply H:                          7.596     7.465  23.6% |--------|
    HMM T:                           0.131     0.131   0.4% |
  diagonalize:                       0.307     0.307   1.0% |
  rotate_psi:                        1.067     1.067   3.4% ||
 Density:                            2.463     0.000   0.0% |
  Atomic density matrices:           0.021     0.021   0.1% |
  Mix:                               0.702     0.702   2.2% ||
  Multipole moments:                 0.001     0.001   0.0% |
  Pseudo density:                    1.739     1.672   5.3% |-|
   Symmetrize density:               0.067     0.067   0.2% |
 Hamiltonian:                        1.644     0.022   0.1% |
  Atomic:                            0.624     0.007   0.0% |
   XC Correction:                    0.617     0.617   1.9% ||
  Calculate atomic Hamiltonians:     0.620     0.620   2.0% ||
  Communicate:                       0.000     0.000   0.0% |
  Poisson:                           0.009     0.009   0.0% |
  XC 3D grid:                        0.368     0.368   1.2% |
 Orthonormalize:                     0.064     0.000   0.0% |
  calc_s_matrix:                     0.013     0.013   0.0% |
  inverse-cholesky:                  0.000     0.000   0.0% |
  projections:                       0.032     0.032   0.1% |
  rotate_psi_s:                      0.019     0.019   0.1% |
Set symmetry:                        0.001     0.001   0.0% |
Other:                               0.159     0.159   0.5% |
-----------------------------------------------------------
Total:                                        31.662 100.0%

Memory usage: 1.02 GiB
Date: Tue Jan 20 23:59:19 2026
