
  ___ ___ ___ _ _ _  
 |   |   |_  | | | | 
 | | | | | . | | | | 
 |__ |  _|___|_____|  25.7.0
 |___|_|             

User:   femisegvn@MacBookPro.home.local
Date:   Tue Jan 20 23:59:19 2026
Arch:   arm64
Pid:    32824
CWD:    /Users/femisegvn/Chem/bora-assignment
Python: 3.11.14
gpaw:   /Users/femisegvn/Coding/miniconda3/envs/bora-assignment/lib/python3.11/site-packages/gpaw
_gpaw:  /Users/femisegvn/Coding/miniconda3/envs/bora-assignment/lib/python3.11/site-packages/
        _gpaw.cpython-311-darwin.so
ase:    /Users/femisegvn/Coding/miniconda3/envs/bora-assignment/lib/python3.11/site-packages/ase (version 3.27.0)
numpy:  /Users/femisegvn/Coding/miniconda3/envs/bora-assignment/lib/python3.11/site-packages/numpy (version 2.4.1)
scipy:  /Users/femisegvn/Coding/miniconda3/envs/bora-assignment/lib/python3.11/site-packages/scipy (version 1.17.0)
libxc:  2.x.y
units:  Angstrom and eV
cores: 1
OpenMP: False
OMP_NUM_THREADS: 1

Input parameters:
  h: 0.25
  kpts: [4 4 1]
  mode: {ecut: 400.0,
         name: pw}

System changes: positions, numbers, cell, pbc, initial_charges, initial_magmoms 

Initialize ...

species:
  Na:
    name: Sodium
    id: 74d681ec425db66acd6a232eb07f04e6
    Z: 11.0
    valence: 7
    core: 4
    charge: 0.0
    file: /Users/femisegvn/Coding/miniconda3/envs/bora-assignment/lib/python3.11/site-packages/gpaw_data/setups/Na.LDA.gz
    compensation charges: {type: gauss,
                           rc: 0.37,
                           lmax: 2}
    cutoffs: {filter: 2.17,
              core: 2.59}
    projectors:
      #              energy  rcut
      - 3s(1.00)    -2.819   1.201
      - 2p(6.00)   -28.826   1.217
      - 3p(0.00)    -0.774   1.217
      -  s          24.392   1.201
      -  d           0.000   1.238
  
    # Using partial waves for Na as LCAO basis

Reference energy: -52784.502531  # eV

Spin-paired calculation

Convergence criteria:
 Maximum [total energy] change in last 3 cyles: 0.0005 eV / valence electron
 Maximum integral of absolute [dens]ity change: 0.0001 electrons / valence electron
 Maximum integral of absolute [eigenst]ate change: 4e-08 eV^2 / valence electron
 Maximum number of scf [iter]ations: 333
 (Square brackets indicate name in SCF output, whereas a 'c' in
 the SCF output indicates the quantity has converged.)

Symmetries present (total): 16

  ( 1  0  0)  ( 1  0  0)  ( 1  0  0)  ( 1  0  0)  ( 0  1  0)  ( 0  1  0)
  ( 0  1  0)  ( 0  1  0)  ( 0 -1  0)  ( 0 -1  0)  ( 1  0  0)  ( 1  0  0)
  ( 0  0  1)  ( 0  0 -1)  ( 0  0  1)  ( 0  0 -1)  ( 0  0  1)  ( 0  0 -1)

  ( 0  1  0)  ( 0  1  0)  ( 0 -1  0)  ( 0 -1  0)  ( 0 -1  0)  ( 0 -1  0)
  (-1  0  0)  (-1  0  0)  ( 1  0  0)  ( 1  0  0)  (-1  0  0)  (-1  0  0)
  ( 0  0  1)  ( 0  0 -1)  ( 0  0  1)  ( 0  0 -1)  ( 0  0  1)  ( 0  0 -1)

  (-1  0  0)  (-1  0  0)  (-1  0  0)  (-1  0  0)
  ( 0  1  0)  ( 0  1  0)  ( 0 -1  0)  ( 0 -1  0)
  ( 0  0  1)  ( 0  0 -1)  ( 0  0  1)  ( 0  0 -1)

16 k-points: 4 x 4 x 1 Monkhorst-Pack grid
3 k-points in the irreducible part of the Brillouin zone
       k-points in crystal coordinates                weights
   0:     0.12500000    0.12500000    0.00000000          4/16
   1:     0.37500000    0.12500000    0.00000000          8/16
   2:     0.37500000    0.37500000    0.00000000          4/16

Wave functions: Plane wave expansion
  Cutoff energy: 400.000 eV
  Number of coefficients (min, max): 15890, 15924
  Pulay-stress correction: 0.000000 eV/Ang^3 (de/decut=0.000000)
  Using Numpy's FFT
  ScaLapack parameters: grid=1x1, blocksize=None
  Wavefunction extrapolation:
    Improved wavefunction reuse through dual PAW basis 

Occupation numbers: Fermi-Dirac:
  width: 0.1000  # eV
 

Eigensolver
   Davidson(niter=2) 

Densities:
  Coarse grid: 35*35*49 grid
  Fine grid: 70*70*98 grid
  Total Charge: 0.000000 

Density mixing:
  Method: separate
  Backend: pulay
  Linear mixing parameter: 0.05
  old densities: 5
  Damping of long wavelength oscillations: 50 

Hamiltonian:
  XC and Coulomb potentials evaluated on a 70*70*98 grid
  Using the LDA Exchange-Correlation functional
  External potential:
    NoExternalPotential
 

Memory estimate:
  Process memory now: 1042.03 MiB
  Calculator: 99.11 MiB
    Density: 27.45 MiB
      Arrays: 11.91 MiB
      Localized functions: 10.97 MiB
      Mixer: 4.58 MiB
    Hamiltonian: 8.01 MiB
      Arrays: 7.79 MiB
      XC: 0.00 MiB
      Poisson: 0.00 MiB
      vbar: 0.22 MiB
    Wavefunctions: 63.64 MiB
      Arrays psit_nG: 40.09 MiB
      Eigensolver: 15.04 MiB
      Projections: 0.39 MiB
      Projectors: 5.10 MiB
      PW-descriptor: 3.02 MiB

Total number of cores used: 1

Number of atoms: 12
Number of atomic orbitals: 84
Number of bands in calculation: 55
Number of valence electrons: 84
Bands to converge: occupied

... initialized

Initializing position-dependent things.

Density initialized from atomic densities
Creating initial wave functions:
  55 bands from LCAO basis set

      .--------------------.  
     /|                    |  
    / |                    |  
   /  |                    |  
  /   |                    |  
 *    |                    |  
 |    |                    |  
 |  Na|       Na           |  
 |    |                    |  
 |    |   Na        Na     |  
 Na   |     Na             |  
 |    | Na        Na       |  
 |    |                    |  
 |  Na|       Na           |  
 |    |                    |  
 Na   .-----Na-------------.  
 |   /                    /   
 |  /                    /    
 | /                    /     
 |/                    /      
 *--------------------*       

Atomic positions and initial magnetic moments

Positions:
   0 Na     0.000000    0.000000    4.000000    ( 0.0000,  0.0000,  0.0000)
   1 Na     4.230000    0.000000    4.000000    ( 0.0000,  0.0000,  0.0000)
   2 Na     0.000000    4.230000    4.000000    ( 0.0000,  0.0000,  0.0000)
   3 Na     4.230000    4.230000    4.000000    ( 0.0000,  0.0000,  0.0000)
   4 Na     2.115000    2.115000    6.115000    ( 0.0000,  0.0000,  0.0000)
   5 Na     6.345000    2.115000    6.115000    ( 0.0000,  0.0000,  0.0000)
   6 Na     2.115000    6.345000    6.115000    ( 0.0000,  0.0000,  0.0000)
   7 Na     6.345000    6.345000    6.115000    ( 0.0000,  0.0000,  0.0000)
   8 Na     0.000000    0.000000    8.230000    ( 0.0000,  0.0000,  0.0000)
   9 Na     4.230000    0.000000    8.230000    ( 0.0000,  0.0000,  0.0000)
  10 Na     0.000000    4.230000    8.230000    ( 0.0000,  0.0000,  0.0000)
  11 Na     4.230000    4.230000    8.230000    ( 0.0000,  0.0000,  0.0000)

Unit cell:
           periodic     x           y           z      points  spacing
  1. axis:    yes    8.460000    0.000000    0.000000    35     0.2417
  2. axis:    yes    0.000000    8.460000    0.000000    35     0.2417
  3. axis:    no     0.000000    0.000000   12.230000    49     0.2496

  Lengths:   8.460000   8.460000  12.230000
  Angles:   90.000000  90.000000  90.000000

Effective grid spacing dv^(1/3) = 0.2443

     iter     time        total  log10-change:
                         energy   eigst   dens
iter:   1 23:59:24   -15.394818
iter:   2 23:59:26   -15.356509   -1.30  -1.46
iter:   3 23:59:27   -15.157324   -1.80  -1.50
iter:   4 23:59:29   -15.160680   -2.45  -1.81
iter:   5 23:59:30   -15.156478c  -2.59  -1.84
iter:   6 23:59:32   -15.145046c  -3.26  -2.28
iter:   7 23:59:33   -15.144059c  -3.94  -2.89
iter:   8 23:59:35   -15.138124c  -3.74  -2.88
iter:   9 23:59:36   -15.138051c  -4.68  -3.31
iter:  10 23:59:38   -15.138067c  -5.37  -3.50
iter:  11 23:59:39   -15.138098c  -5.83  -3.49
iter:  12 23:59:41   -15.138062c  -5.81  -3.64
iter:  13 23:59:42   -15.138053c  -6.47  -4.31c
iter:  14 23:59:43   -15.138048c  -6.70  -4.61c
iter:  15 23:59:45   -15.138047c  -7.57c -4.74c

Converged after 15 iterations.

Dipole moment: (0.000000, 0.000000, 0.000000) |e|*Ang

Energy contributions relative to reference atoms: (reference = -52784.502531)

Kinetic:         +4.467924
Potential:       -4.938096
External:        +0.000000
XC:             -14.077392
Entropy (-ST):   -0.212040
Local:           -0.484464
SIC:             +0.000000
--------------------------
Free energy:    -15.244067
Extrapolated:   -15.138047

Showing only first 2 kpts
 Kpt  Band  Eigenvalues  Occupancy
  0    40     -1.15993    1.11146
  0    41     -1.15993    1.11146
  0    42     -0.87901    0.14018
  0    43     -0.77933    0.05413

  1    40     -1.56001    1.97116
  1    41     -1.42916    1.89728
  1    42     -0.90466    0.17753
  1    43     -0.62172    0.01144


Fermi level: -1.13755

No gap
No difference between direct/indirect transitions
Timing:                              incl.     excl.
-----------------------------------------------------------
Hamiltonian:                         0.096     0.001   0.0% |
 Atomic:                             0.037     0.000   0.0% |
  XC Correction:                     0.036     0.036   0.1% |
 Calculate atomic Hamiltonians:      0.036     0.036   0.1% |
 Communicate:                        0.000     0.000   0.0% |
 Initialize Hamiltonian:             0.000     0.000   0.0% |
 Poisson:                            0.000     0.000   0.0% |
 XC 3D grid:                         0.022     0.022   0.1% |
LCAO initialization:                 4.200     0.007   0.0% |
 LCAO eigensolver:                   0.090     0.000   0.0% |
  Calculate projections:             0.001     0.001   0.0% |
  DenseAtomicCorrection:             0.002     0.002   0.0% |
  Distribute overlap matrix:         0.000     0.000   0.0% |
  Orbital Layouts:                   0.005     0.005   0.0% |
  Potential matrix:                  0.079     0.079   0.3% |
  Sum over cells:                    0.003     0.003   0.0% |
 LCAO to grid:                       4.062     4.062  15.5% |-----|
 Set positions (LCAO WFS):           0.041     0.008   0.0% |
  Basic WFS set positions:           0.001     0.001   0.0% |
  Basis functions set positions:     0.000     0.000   0.0% |
  P tci:                             0.022     0.022   0.1% |
  ST tci:                            0.008     0.008   0.0% |
  mktci:                             0.002     0.002   0.0% |
PWDescriptor:                        0.003     0.003   0.0% |
SCF-cycle:                          21.770     0.006   0.0% |
 Davidson:                          18.277     2.485   9.5% |---|
  Apply H:                           2.972     2.930  11.2% |---|
   HMM T:                            0.041     0.041   0.2% |
  Subspace diag:                     3.887     0.003   0.0% |
   calc_h_matrix:                    3.371     0.369   1.4% ||
    Apply H:                         3.003     2.958  11.3% |----|
     HMM T:                          0.044     0.044   0.2% |
   diagonalize:                      0.030     0.030   0.1% |
   rotate_psi:                       0.483     0.483   1.8% ||
  calc. matrices:                    7.765     1.853   7.1% |--|
   Apply H:                          5.911     5.818  22.2% |--------|
    HMM T:                           0.093     0.093   0.4% |
  diagonalize:                       0.251     0.251   1.0% |
  rotate_psi:                        0.918     0.918   3.5% ||
 Density:                            1.984     0.000   0.0% |
  Atomic density matrices:           0.017     0.017   0.1% |
  Mix:                               0.572     0.572   2.2% ||
  Multipole moments:                 0.001     0.001   0.0% |
  Pseudo density:                    1.394     1.340   5.1% |-|
   Symmetrize density:               0.054     0.054   0.2% |
 Hamiltonian:                        1.441     0.018   0.1% |
  Atomic:                            0.601     0.091   0.3% |
   XC Correction:                    0.510     0.510   1.9% ||
  Calculate atomic Hamiltonians:     0.506     0.506   1.9% ||
  Communicate:                       0.000     0.000   0.0% |
  Poisson:                           0.006     0.006   0.0% |
  XC 3D grid:                        0.311     0.311   1.2% |
 Orthonormalize:                     0.062     0.000   0.0% |
  calc_s_matrix:                     0.012     0.012   0.0% |
  inverse-cholesky:                  0.000     0.000   0.0% |
  projections:                       0.031     0.031   0.1% |
  rotate_psi_s:                      0.018     0.018   0.1% |
Set symmetry:                        0.001     0.001   0.0% |
Other:                               0.167     0.167   0.6% |
-----------------------------------------------------------
Total:                                        26.238 100.0%

Memory usage: 1.02 GiB
Date: Tue Jan 20 23:59:45 2026
