
  ___ ___ ___ _ _ _  
 |   |   |_  | | | | 
 | | | | | . | | | | 
 |__ |  _|___|_____|  25.7.0
 |___|_|             

User:   femisegvn@MacBookPro.home.local
Date:   Tue Jan 20 23:59:45 2026
Arch:   arm64
Pid:    32824
CWD:    /Users/femisegvn/Chem/bora-assignment
Python: 3.11.14
gpaw:   /Users/femisegvn/Coding/miniconda3/envs/bora-assignment/lib/python3.11/site-packages/gpaw
_gpaw:  /Users/femisegvn/Coding/miniconda3/envs/bora-assignment/lib/python3.11/site-packages/
        _gpaw.cpython-311-darwin.so
ase:    /Users/femisegvn/Coding/miniconda3/envs/bora-assignment/lib/python3.11/site-packages/ase (version 3.27.0)
numpy:  /Users/femisegvn/Coding/miniconda3/envs/bora-assignment/lib/python3.11/site-packages/numpy (version 2.4.1)
scipy:  /Users/femisegvn/Coding/miniconda3/envs/bora-assignment/lib/python3.11/site-packages/scipy (version 1.17.0)
libxc:  2.x.y
units:  Angstrom and eV
cores: 1
OpenMP: False
OMP_NUM_THREADS: 1

Input parameters:
  h: 0.25
  kpts: [5 5 1]
  mode: {ecut: 400.0,
         name: pw}

System changes: positions, numbers, cell, pbc, initial_charges, initial_magmoms 

Initialize ...

species:
  Na:
    name: Sodium
    id: 74d681ec425db66acd6a232eb07f04e6
    Z: 11.0
    valence: 7
    core: 4
    charge: 0.0
    file: /Users/femisegvn/Coding/miniconda3/envs/bora-assignment/lib/python3.11/site-packages/gpaw_data/setups/Na.LDA.gz
    compensation charges: {type: gauss,
                           rc: 0.37,
                           lmax: 2}
    cutoffs: {filter: 2.17,
              core: 2.59}
    projectors:
      #              energy  rcut
      - 3s(1.00)    -2.819   1.201
      - 2p(6.00)   -28.826   1.217
      - 3p(0.00)    -0.774   1.217
      -  s          24.392   1.201
      -  d           0.000   1.238
  
    # Using partial waves for Na as LCAO basis

Reference energy: -52784.502531  # eV

Spin-paired calculation

Convergence criteria:
 Maximum [total energy] change in last 3 cyles: 0.0005 eV / valence electron
 Maximum integral of absolute [dens]ity change: 0.0001 electrons / valence electron
 Maximum integral of absolute [eigenst]ate change: 4e-08 eV^2 / valence electron
 Maximum number of scf [iter]ations: 333
 (Square brackets indicate name in SCF output, whereas a 'c' in
 the SCF output indicates the quantity has converged.)

Symmetries present (total): 16

  ( 1  0  0)  ( 1  0  0)  ( 1  0  0)  ( 1  0  0)  ( 0  1  0)  ( 0  1  0)
  ( 0  1  0)  ( 0  1  0)  ( 0 -1  0)  ( 0 -1  0)  ( 1  0  0)  ( 1  0  0)
  ( 0  0  1)  ( 0  0 -1)  ( 0  0  1)  ( 0  0 -1)  ( 0  0  1)  ( 0  0 -1)

  ( 0  1  0)  ( 0  1  0)  ( 0 -1  0)  ( 0 -1  0)  ( 0 -1  0)  ( 0 -1  0)
  (-1  0  0)  (-1  0  0)  ( 1  0  0)  ( 1  0  0)  (-1  0  0)  (-1  0  0)
  ( 0  0  1)  ( 0  0 -1)  ( 0  0  1)  ( 0  0 -1)  ( 0  0  1)  ( 0  0 -1)

  (-1  0  0)  (-1  0  0)  (-1  0  0)  (-1  0  0)
  ( 0  1  0)  ( 0  1  0)  ( 0 -1  0)  ( 0 -1  0)
  ( 0  0  1)  ( 0  0 -1)  ( 0  0  1)  ( 0  0 -1)

25 k-points: 5 x 5 x 1 Monkhorst-Pack grid
6 k-points in the irreducible part of the Brillouin zone
       k-points in crystal coordinates                weights
   0:     0.00000000    0.00000000    0.00000000          1/25
   1:     0.20000000    0.00000000    0.00000000          4/25
   2:     0.20000000    0.20000000    0.00000000          4/25
   3:     0.40000000    0.00000000    0.00000000          4/25
   4:     0.40000000    0.20000000    0.00000000          8/25
   5:     0.40000000    0.40000000    0.00000000          4/25

Wave functions: Plane wave expansion
  Cutoff energy: 400.000 eV
  Number of coefficients (min, max): 15882, 15914
  Pulay-stress correction: 0.000000 eV/Ang^3 (de/decut=0.000000)
  Using Numpy's FFT
  ScaLapack parameters: grid=1x1, blocksize=None
  Wavefunction extrapolation:
    Improved wavefunction reuse through dual PAW basis 

Occupation numbers: Fermi-Dirac:
  width: 0.1000  # eV
 

Eigensolver
   Davidson(niter=2) 

Densities:
  Coarse grid: 35*35*49 grid
  Fine grid: 70*70*98 grid
  Total Charge: 0.000000 

Density mixing:
  Method: separate
  Backend: pulay
  Linear mixing parameter: 0.05
  old densities: 5
  Damping of long wavelength oscillations: 50 

Hamiltonian:
  XC and Coulomb potentials evaluated on a 70*70*98 grid
  Using the LDA Exchange-Correlation functional
  External potential:
    NoExternalPotential
 

Memory estimate:
  Process memory now: 1042.03 MiB
  Calculator: 145.35 MiB
    Density: 27.45 MiB
      Arrays: 11.91 MiB
      Localized functions: 10.97 MiB
      Mixer: 4.58 MiB
    Hamiltonian: 8.01 MiB
      Arrays: 7.79 MiB
      XC: 0.00 MiB
      Poisson: 0.00 MiB
      vbar: 0.22 MiB
    Wavefunctions: 109.89 MiB
      Arrays psit_nG: 80.13 MiB
      Eigensolver: 15.03 MiB
      Projections: 0.79 MiB
      Projectors: 10.19 MiB
      PW-descriptor: 3.75 MiB

Total number of cores used: 1

Number of atoms: 12
Number of atomic orbitals: 84
Number of bands in calculation: 55
Number of valence electrons: 84
Bands to converge: occupied

... initialized

Initializing position-dependent things.

Density initialized from atomic densities
Creating initial wave functions:
  55 bands from LCAO basis set

      .--------------------.  
     /|                    |  
    / |                    |  
   /  |                    |  
  /   |                    |  
 *    |                    |  
 |    |                    |  
 |  Na|       Na           |  
 |    |                    |  
 |    |   Na        Na     |  
 Na   |     Na             |  
 |    | Na        Na       |  
 |    |                    |  
 |  Na|       Na           |  
 |    |                    |  
 Na   .-----Na-------------.  
 |   /                    /   
 |  /                    /    
 | /                    /     
 |/                    /      
 *--------------------*       

Atomic positions and initial magnetic moments

Positions:
   0 Na     0.000000    0.000000    4.000000    ( 0.0000,  0.0000,  0.0000)
   1 Na     4.230000    0.000000    4.000000    ( 0.0000,  0.0000,  0.0000)
   2 Na     0.000000    4.230000    4.000000    ( 0.0000,  0.0000,  0.0000)
   3 Na     4.230000    4.230000    4.000000    ( 0.0000,  0.0000,  0.0000)
   4 Na     2.115000    2.115000    6.115000    ( 0.0000,  0.0000,  0.0000)
   5 Na     6.345000    2.115000    6.115000    ( 0.0000,  0.0000,  0.0000)
   6 Na     2.115000    6.345000    6.115000    ( 0.0000,  0.0000,  0.0000)
   7 Na     6.345000    6.345000    6.115000    ( 0.0000,  0.0000,  0.0000)
   8 Na     0.000000    0.000000    8.230000    ( 0.0000,  0.0000,  0.0000)
   9 Na     4.230000    0.000000    8.230000    ( 0.0000,  0.0000,  0.0000)
  10 Na     0.000000    4.230000    8.230000    ( 0.0000,  0.0000,  0.0000)
  11 Na     4.230000    4.230000    8.230000    ( 0.0000,  0.0000,  0.0000)

Unit cell:
           periodic     x           y           z      points  spacing
  1. axis:    yes    8.460000    0.000000    0.000000    35     0.2417
  2. axis:    yes    0.000000    8.460000    0.000000    35     0.2417
  3. axis:    no     0.000000    0.000000   12.230000    49     0.2496

  Lengths:   8.460000   8.460000  12.230000
  Angles:   90.000000  90.000000  90.000000

Effective grid spacing dv^(1/3) = 0.2443

     iter     time        total  log10-change:
                         energy   eigst   dens
iter:   1 23:59:56   -15.438154
iter:   2 23:59:59   -15.397633   -1.30  -1.46
iter:   3 00:00:01   -15.185313   -1.79  -1.50
iter:   4 00:00:04   -15.185359   -2.45  -1.81
iter:   5 00:00:07   -15.185206c  -2.59  -1.83
iter:   6 00:00:10   -15.171057c  -3.29  -2.30
iter:   7 00:00:13   -15.171770c  -3.88  -2.88
iter:   8 00:00:16   -15.164691c  -3.77  -2.88
iter:   9 00:00:19   -15.164332c  -4.48  -3.41
iter:  10 00:00:22   -15.164356c  -5.30  -3.45
iter:  11 00:00:25   -15.164368c  -5.06  -3.46
iter:  12 00:00:28   -15.164432c  -5.62  -3.25
iter:  13 00:00:31   -15.164442c  -5.75  -3.96
iter:  14 00:00:34   -15.164444c  -6.70  -4.51c
iter:  15 00:00:37   -15.164446c  -7.23  -4.46c
iter:  16 00:00:40   -15.164439c  -7.60c -4.45c

Converged after 16 iterations.

Dipole moment: (0.000000, 0.000000, 0.000000) |e|*Ang

Energy contributions relative to reference atoms: (reference = -52784.502531)

Kinetic:         +4.304056
Potential:       -4.822509
External:        +0.000000
XC:             -14.057417
Entropy (-ST):   -0.208614
Local:           -0.484263
SIC:             +0.000000
--------------------------
Free energy:    -15.268746
Extrapolated:   -15.164439

Showing only first 2 kpts
 Kpt  Band  Eigenvalues  Occupancy
  0    40     -1.67459    1.99229
  0    41     -1.67459    1.99229
  0    42     -0.94582    0.30036
  0    43     -0.34474    0.00087

  1    40     -1.59167    1.98242
  1    41     -1.07325    0.77450
  1    42     -0.86334    0.14378
  1    43     -0.83448    0.10971


Fermi level: -1.11914

No gap
No difference between direct/indirect transitions
Timing:                              incl.     excl.
-----------------------------------------------------------
Hamiltonian:                         0.097     0.001   0.0% |
 Atomic:                             0.036     0.000   0.0% |
  XC Correction:                     0.036     0.036   0.1% |
 Calculate atomic Hamiltonians:      0.036     0.036   0.1% |
 Communicate:                        0.000     0.000   0.0% |
 Initialize Hamiltonian:             0.000     0.000   0.0% |
 Poisson:                            0.001     0.001   0.0% |
 XC 3D grid:                         0.022     0.022   0.0% |
LCAO initialization:                 8.262     0.007   0.0% |
 LCAO eigensolver:                   0.104     0.001   0.0% |
  Calculate projections:             0.001     0.001   0.0% |
  DenseAtomicCorrection:             0.004     0.004   0.0% |
  Distribute overlap matrix:         0.000     0.000   0.0% |
  Orbital Layouts:                   0.009     0.009   0.0% |
  Potential matrix:                  0.083     0.083   0.2% |
  Sum over cells:                    0.006     0.006   0.0% |
 LCAO to grid:                       8.089     8.089  14.8% |-----|
 Set positions (LCAO WFS):           0.062     0.010   0.0% |
  Basic WFS set positions:           0.001     0.001   0.0% |
  Basis functions set positions:     0.000     0.000   0.0% |
  P tci:                             0.038     0.038   0.1% |
  ST tci:                            0.011     0.011   0.0% |
  mktci:                             0.002     0.002   0.0% |
PWDescriptor:                        0.007     0.007   0.0% |
SCF-cycle:                          46.069     0.010   0.0% |
 Davidson:                          40.530     5.552  10.2% |---|
  Apply H:                           6.546     6.442  11.8% |----|
   HMM T:                            0.104     0.104   0.2% |
  Subspace diag:                     8.479     0.006   0.0% |
   calc_h_matrix:                    7.385     0.851   1.6% ||
    Apply H:                         6.534     6.432  11.8% |----|
     HMM T:                          0.102     0.102   0.2% |
   diagonalize:                      0.067     0.067   0.1% |
   rotate_psi:                       1.021     1.021   1.9% ||
  calc. matrices:                   17.379     4.439   8.1% |--|
   Apply H:                         12.940    12.737  23.3% |--------|
    HMM T:                           0.203     0.203   0.4% |
  diagonalize:                       0.546     0.546   1.0% |
  rotate_psi:                        2.028     2.028   3.7% ||
 Density:                            3.875     0.000   0.0% |
  Atomic density matrices:           0.025     0.025   0.0% |
  Mix:                               0.661     0.661   1.2% |
  Multipole moments:                 0.002     0.002   0.0% |
  Pseudo density:                    3.187     3.099   5.7% |-|
   Symmetrize density:               0.088     0.088   0.2% |
 Hamiltonian:                        1.532     0.018   0.0% |
  Atomic:                            0.580     0.007   0.0% |
   XC Correction:                    0.573     0.573   1.0% |
  Calculate atomic Hamiltonians:     0.582     0.582   1.1% |
  Communicate:                       0.000     0.000   0.0% |
  Poisson:                           0.008     0.008   0.0% |
  XC 3D grid:                        0.345     0.345   0.6% |
 Orthonormalize:                     0.123     0.000   0.0% |
  calc_s_matrix:                     0.027     0.027   0.0% |
  inverse-cholesky:                  0.001     0.001   0.0% |
  projections:                       0.060     0.060   0.1% |
  rotate_psi_s:                      0.035     0.035   0.1% |
Set symmetry:                        0.001     0.001   0.0% |
Other:                               0.175     0.175   0.3% |
-----------------------------------------------------------
Total:                                        54.610 100.0%

Memory usage: 1.02 GiB
Date: Wed Jan 21 00:00:40 2026
