
  ___ ___ ___ _ _ _  
 |   |   |_  | | | | 
 | | | | | . | | | | 
 |__ |  _|___|_____|  25.7.0
 |___|_|             

User:   femisegvn@MacBookPro.home.local
Date:   Wed Jan 21 00:00:40 2026
Arch:   arm64
Pid:    32824
CWD:    /Users/femisegvn/Chem/bora-assignment
Python: 3.11.14
gpaw:   /Users/femisegvn/Coding/miniconda3/envs/bora-assignment/lib/python3.11/site-packages/gpaw
_gpaw:  /Users/femisegvn/Coding/miniconda3/envs/bora-assignment/lib/python3.11/site-packages/
        _gpaw.cpython-311-darwin.so
ase:    /Users/femisegvn/Coding/miniconda3/envs/bora-assignment/lib/python3.11/site-packages/ase (version 3.27.0)
numpy:  /Users/femisegvn/Coding/miniconda3/envs/bora-assignment/lib/python3.11/site-packages/numpy (version 2.4.1)
scipy:  /Users/femisegvn/Coding/miniconda3/envs/bora-assignment/lib/python3.11/site-packages/scipy (version 1.17.0)
libxc:  2.x.y
units:  Angstrom and eV
cores: 1
OpenMP: False
OMP_NUM_THREADS: 1

Input parameters:
  h: 0.25
  kpts: [6 6 1]
  mode: {ecut: 400.0,
         name: pw}

System changes: positions, numbers, cell, pbc, initial_charges, initial_magmoms 

Initialize ...

species:
  Na:
    name: Sodium
    id: 74d681ec425db66acd6a232eb07f04e6
    Z: 11.0
    valence: 7
    core: 4
    charge: 0.0
    file: /Users/femisegvn/Coding/miniconda3/envs/bora-assignment/lib/python3.11/site-packages/gpaw_data/setups/Na.LDA.gz
    compensation charges: {type: gauss,
                           rc: 0.37,
                           lmax: 2}
    cutoffs: {filter: 2.17,
              core: 2.59}
    projectors:
      #              energy  rcut
      - 3s(1.00)    -2.819   1.201
      - 2p(6.00)   -28.826   1.217
      - 3p(0.00)    -0.774   1.217
      -  s          24.392   1.201
      -  d           0.000   1.238
  
    # Using partial waves for Na as LCAO basis

Reference energy: -52784.502531  # eV

Spin-paired calculation

Convergence criteria:
 Maximum [total energy] change in last 3 cyles: 0.0005 eV / valence electron
 Maximum integral of absolute [dens]ity change: 0.0001 electrons / valence electron
 Maximum integral of absolute [eigenst]ate change: 4e-08 eV^2 / valence electron
 Maximum number of scf [iter]ations: 333
 (Square brackets indicate name in SCF output, whereas a 'c' in
 the SCF output indicates the quantity has converged.)

Symmetries present (total): 16

  ( 1  0  0)  ( 1  0  0)  ( 1  0  0)  ( 1  0  0)  ( 0  1  0)  ( 0  1  0)
  ( 0  1  0)  ( 0  1  0)  ( 0 -1  0)  ( 0 -1  0)  ( 1  0  0)  ( 1  0  0)
  ( 0  0  1)  ( 0  0 -1)  ( 0  0  1)  ( 0  0 -1)  ( 0  0  1)  ( 0  0 -1)

  ( 0  1  0)  ( 0  1  0)  ( 0 -1  0)  ( 0 -1  0)  ( 0 -1  0)  ( 0 -1  0)
  (-1  0  0)  (-1  0  0)  ( 1  0  0)  ( 1  0  0)  (-1  0  0)  (-1  0  0)
  ( 0  0  1)  ( 0  0 -1)  ( 0  0  1)  ( 0  0 -1)  ( 0  0  1)  ( 0  0 -1)

  (-1  0  0)  (-1  0  0)  (-1  0  0)  (-1  0  0)
  ( 0  1  0)  ( 0  1  0)  ( 0 -1  0)  ( 0 -1  0)
  ( 0  0  1)  ( 0  0 -1)  ( 0  0  1)  ( 0  0 -1)

36 k-points: 6 x 6 x 1 Monkhorst-Pack grid
6 k-points in the irreducible part of the Brillouin zone
       k-points in crystal coordinates                weights
   0:     0.08333333    0.08333333    0.00000000          4/36
   1:     0.25000000    0.08333333    0.00000000          8/36
   2:     0.25000000    0.25000000    0.00000000          4/36
   3:     0.41666667    0.08333333    0.00000000          8/36
   4:     0.41666667    0.25000000    0.00000000          8/36
   5:     0.41666667    0.41666667    0.00000000          4/36

Wave functions: Plane wave expansion
  Cutoff energy: 400.000 eV
  Number of coefficients (min, max): 15874, 15910
  Pulay-stress correction: 0.000000 eV/Ang^3 (de/decut=0.000000)
  Using Numpy's FFT
  ScaLapack parameters: grid=1x1, blocksize=None
  Wavefunction extrapolation:
    Improved wavefunction reuse through dual PAW basis 

Occupation numbers: Fermi-Dirac:
  width: 0.1000  # eV
 

Eigensolver
   Davidson(niter=2) 

Densities:
  Coarse grid: 35*35*49 grid
  Fine grid: 70*70*98 grid
  Total Charge: 0.000000 

Density mixing:
  Method: separate
  Backend: pulay
  Linear mixing parameter: 0.05
  old densities: 5
  Damping of long wavelength oscillations: 50 

Hamiltonian:
  XC and Coulomb potentials evaluated on a 70*70*98 grid
  Using the LDA Exchange-Correlation functional
  External potential:
    NoExternalPotential
 

Memory estimate:
  Process memory now: 1042.03 MiB
  Calculator: 145.32 MiB
    Density: 27.45 MiB
      Arrays: 11.91 MiB
      Localized functions: 10.97 MiB
      Mixer: 4.58 MiB
    Hamiltonian: 8.01 MiB
      Arrays: 7.79 MiB
      XC: 0.00 MiB
      Poisson: 0.00 MiB
      vbar: 0.22 MiB
    Wavefunctions: 109.86 MiB
      Arrays psit_nG: 80.11 MiB
      Eigensolver: 15.03 MiB
      Projections: 0.79 MiB
      Projectors: 10.19 MiB
      PW-descriptor: 3.75 MiB

Total number of cores used: 1

Number of atoms: 12
Number of atomic orbitals: 84
Number of bands in calculation: 55
Number of valence electrons: 84
Bands to converge: occupied

... initialized

Initializing position-dependent things.

Density initialized from atomic densities
Creating initial wave functions:
  55 bands from LCAO basis set

      .--------------------.  
     /|                    |  
    / |                    |  
   /  |                    |  
  /   |                    |  
 *    |                    |  
 |    |                    |  
 |  Na|       Na           |  
 |    |                    |  
 |    |   Na        Na     |  
 Na   |     Na             |  
 |    | Na        Na       |  
 |    |                    |  
 |  Na|       Na           |  
 |    |                    |  
 Na   .-----Na-------------.  
 |   /                    /   
 |  /                    /    
 | /                    /     
 |/                    /      
 *--------------------*       

Atomic positions and initial magnetic moments

Positions:
   0 Na     0.000000    0.000000    4.000000    ( 0.0000,  0.0000,  0.0000)
   1 Na     4.230000    0.000000    4.000000    ( 0.0000,  0.0000,  0.0000)
   2 Na     0.000000    4.230000    4.000000    ( 0.0000,  0.0000,  0.0000)
   3 Na     4.230000    4.230000    4.000000    ( 0.0000,  0.0000,  0.0000)
   4 Na     2.115000    2.115000    6.115000    ( 0.0000,  0.0000,  0.0000)
   5 Na     6.345000    2.115000    6.115000    ( 0.0000,  0.0000,  0.0000)
   6 Na     2.115000    6.345000    6.115000    ( 0.0000,  0.0000,  0.0000)
   7 Na     6.345000    6.345000    6.115000    ( 0.0000,  0.0000,  0.0000)
   8 Na     0.000000    0.000000    8.230000    ( 0.0000,  0.0000,  0.0000)
   9 Na     4.230000    0.000000    8.230000    ( 0.0000,  0.0000,  0.0000)
  10 Na     0.000000    4.230000    8.230000    ( 0.0000,  0.0000,  0.0000)
  11 Na     4.230000    4.230000    8.230000    ( 0.0000,  0.0000,  0.0000)

Unit cell:
           periodic     x           y           z      points  spacing
  1. axis:    yes    8.460000    0.000000    0.000000    35     0.2417
  2. axis:    yes    0.000000    8.460000    0.000000    35     0.2417
  3. axis:    no     0.000000    0.000000   12.230000    49     0.2496

  Lengths:   8.460000   8.460000  12.230000
  Angles:   90.000000  90.000000  90.000000

Effective grid spacing dv^(1/3) = 0.2443

     iter     time        total  log10-change:
                         energy   eigst   dens
iter:   1 00:00:51   -15.432018
iter:   2 00:00:53   -15.387060   -1.30  -1.45
iter:   3 00:00:56   -15.166106   -1.80  -1.49
iter:   4 00:00:59   -15.165758   -2.45  -1.81
iter:   5 00:01:01   -15.165791c  -2.60  -1.83
iter:   6 00:01:04   -15.152978c  -3.29  -2.31
iter:   7 00:01:07   -15.152730c  -3.92  -2.88
iter:   8 00:01:09   -15.146438c  -3.81  -2.90
iter:   9 00:01:12   -15.146190c  -4.45  -3.14
iter:  10 00:01:15   -15.146195c  -5.26  -3.62
iter:  11 00:01:18   -15.146224c  -5.35  -3.62
iter:  12 00:01:20   -15.146432c  -5.65  -3.60
iter:  13 00:01:23   -15.146461c  -6.29  -3.54
iter:  14 00:01:26   -15.146315c  -5.12  -3.50
iter:  15 00:01:28   -15.146309c  -5.78  -3.92
iter:  16 00:01:31   -15.146284c  -7.33  -3.91
iter:  17 00:01:33   -15.146265c  -6.74  -3.98
iter:  18 00:01:36   -15.146249c  -6.06  -4.18c
iter:  19 00:01:39   -15.146250c  -7.39  -4.67c
iter:  20 00:01:41   -15.146253c  -7.61c -4.71c

Converged after 20 iterations.

Dipole moment: (0.000000, -0.000000, 0.000000) |e|*Ang

Energy contributions relative to reference atoms: (reference = -52784.502531)

Kinetic:         +4.453724
Potential:       -4.919494
External:        +0.000000
XC:             -14.085293
Entropy (-ST):   -0.220122
Local:           -0.485128
SIC:             +0.000000
--------------------------
Free energy:    -15.256314
Extrapolated:   -15.146253

Showing only first 2 kpts
 Kpt  Band  Eigenvalues  Occupancy
  0    40     -1.35743    1.78827
  0    41     -1.35742    1.78827
  0    42     -0.91584    0.18522
  0    43     -0.64126    0.01302

  1    40     -1.24313    1.45847
  1    41     -1.21742    1.35119
  1    42     -0.91912    0.19081
  1    43     -0.80133    0.06291


Fermi level: -1.14406

No gap
No difference between direct/indirect transitions
Timing:                              incl.     excl.
-----------------------------------------------------------
Hamiltonian:                         0.099     0.001   0.0% |
 Atomic:                             0.037     0.000   0.0% |
  XC Correction:                     0.036     0.036   0.1% |
 Calculate atomic Hamiltonians:      0.038     0.038   0.1% |
 Communicate:                        0.000     0.000   0.0% |
 Initialize Hamiltonian:             0.000     0.000   0.0% |
 Poisson:                            0.001     0.001   0.0% |
 XC 3D grid:                         0.022     0.022   0.0% |
LCAO initialization:                 8.278     0.008   0.0% |
 LCAO eigensolver:                   0.101     0.000   0.0% |
  Calculate projections:             0.001     0.001   0.0% |
  DenseAtomicCorrection:             0.004     0.004   0.0% |
  Distribute overlap matrix:         0.000     0.000   0.0% |
  Orbital Layouts:                   0.009     0.009   0.0% |
  Potential matrix:                  0.079     0.079   0.1% |
  Sum over cells:                    0.006     0.006   0.0% |
 LCAO to grid:                       8.104     8.104  13.1% |----|
 Set positions (LCAO WFS):           0.065     0.013   0.0% |
  Basic WFS set positions:           0.001     0.001   0.0% |
  Basis functions set positions:     0.000     0.000   0.0% |
  P tci:                             0.038     0.038   0.1% |
  ST tci:                            0.011     0.011   0.0% |
  mktci:                             0.002     0.002   0.0% |
PWDescriptor:                        0.007     0.007   0.0% |
SCF-cycle:                          53.320     0.010   0.0% |
 Davidson:                          46.968     6.609  10.7% |---|
  Apply H:                           7.411     7.302  11.8% |----|
   HMM T:                            0.109     0.109   0.2% |
  Subspace diag:                     9.829     0.007   0.0% |
   calc_h_matrix:                    8.449     1.029   1.7% ||
    Apply H:                         7.420     7.307  11.8% |----|
     HMM T:                          0.113     0.113   0.2% |
   diagonalize:                      0.082     0.082   0.1% |
   rotate_psi:                       1.290     1.290   2.1% ||
  calc. matrices:                   19.996     5.278   8.5% |--|
   Apply H:                         14.718    14.482  23.4% |--------|
    HMM T:                           0.237     0.237   0.4% |
  diagonalize:                       0.674     0.674   1.1% |
  rotate_psi:                        2.449     2.449   4.0% |-|
 Density:                            4.397     0.000   0.0% |
  Atomic density matrices:           0.031     0.031   0.0% |
  Mix:                               0.765     0.765   1.2% |
  Multipole moments:                 0.001     0.001   0.0% |
  Pseudo density:                    3.599     3.525   5.7% |-|
   Symmetrize density:               0.074     0.074   0.1% |
 Hamiltonian:                        1.823     0.019   0.0% |
  Atomic:                            0.694     0.007   0.0% |
   XC Correction:                    0.687     0.687   1.1% |
  Calculate atomic Hamiltonians:     0.688     0.688   1.1% |
  Communicate:                       0.000     0.000   0.0% |
  Poisson:                           0.008     0.008   0.0% |
  XC 3D grid:                        0.414     0.414   0.7% |
 Orthonormalize:                     0.122     0.000   0.0% |
  calc_s_matrix:                     0.027     0.027   0.0% |
  inverse-cholesky:                  0.001     0.001   0.0% |
  projections:                       0.059     0.059   0.1% |
  rotate_psi_s:                      0.035     0.035   0.1% |
Set symmetry:                        0.001     0.001   0.0% |
Other:                               0.179     0.179   0.3% |
-----------------------------------------------------------
Total:                                        61.885 100.0%

Memory usage: 1.02 GiB
Date: Wed Jan 21 00:01:41 2026
