
  ___ ___ ___ _ _ _  
 |   |   |_  | | | | 
 | | | | | . | | | | 
 |__ |  _|___|_____|  25.7.0
 |___|_|             

User:   femisegvn@MacBookPro.home.local
Date:   Wed Jan 21 00:01:41 2026
Arch:   arm64
Pid:    32824
CWD:    /Users/femisegvn/Chem/bora-assignment
Python: 3.11.14
gpaw:   /Users/femisegvn/Coding/miniconda3/envs/bora-assignment/lib/python3.11/site-packages/gpaw
_gpaw:  /Users/femisegvn/Coding/miniconda3/envs/bora-assignment/lib/python3.11/site-packages/
        _gpaw.cpython-311-darwin.so
ase:    /Users/femisegvn/Coding/miniconda3/envs/bora-assignment/lib/python3.11/site-packages/ase (version 3.27.0)
numpy:  /Users/femisegvn/Coding/miniconda3/envs/bora-assignment/lib/python3.11/site-packages/numpy (version 2.4.1)
scipy:  /Users/femisegvn/Coding/miniconda3/envs/bora-assignment/lib/python3.11/site-packages/scipy (version 1.17.0)
libxc:  2.x.y
units:  Angstrom and eV
cores: 1
OpenMP: False
OMP_NUM_THREADS: 1

Input parameters:
  h: 0.25
  kpts: [8 8 1]
  mode: {ecut: 400.0,
         name: pw}

System changes: positions, numbers, cell, pbc, initial_charges, initial_magmoms 

Initialize ...

species:
  Na:
    name: Sodium
    id: 74d681ec425db66acd6a232eb07f04e6
    Z: 11.0
    valence: 7
    core: 4
    charge: 0.0
    file: /Users/femisegvn/Coding/miniconda3/envs/bora-assignment/lib/python3.11/site-packages/gpaw_data/setups/Na.LDA.gz
    compensation charges: {type: gauss,
                           rc: 0.37,
                           lmax: 2}
    cutoffs: {filter: 2.17,
              core: 2.59}
    projectors:
      #              energy  rcut
      - 3s(1.00)    -2.819   1.201
      - 2p(6.00)   -28.826   1.217
      - 3p(0.00)    -0.774   1.217
      -  s          24.392   1.201
      -  d           0.000   1.238
  
    # Using partial waves for Na as LCAO basis

Reference energy: -52784.502531  # eV

Spin-paired calculation

Convergence criteria:
 Maximum [total energy] change in last 3 cyles: 0.0005 eV / valence electron
 Maximum integral of absolute [dens]ity change: 0.0001 electrons / valence electron
 Maximum integral of absolute [eigenst]ate change: 4e-08 eV^2 / valence electron
 Maximum number of scf [iter]ations: 333
 (Square brackets indicate name in SCF output, whereas a 'c' in
 the SCF output indicates the quantity has converged.)

Symmetries present (total): 16

  ( 1  0  0)  ( 1  0  0)  ( 1  0  0)  ( 1  0  0)  ( 0  1  0)  ( 0  1  0)
  ( 0  1  0)  ( 0  1  0)  ( 0 -1  0)  ( 0 -1  0)  ( 1  0  0)  ( 1  0  0)
  ( 0  0  1)  ( 0  0 -1)  ( 0  0  1)  ( 0  0 -1)  ( 0  0  1)  ( 0  0 -1)

  ( 0  1  0)  ( 0  1  0)  ( 0 -1  0)  ( 0 -1  0)  ( 0 -1  0)  ( 0 -1  0)
  (-1  0  0)  (-1  0  0)  ( 1  0  0)  ( 1  0  0)  (-1  0  0)  (-1  0  0)
  ( 0  0  1)  ( 0  0 -1)  ( 0  0  1)  ( 0  0 -1)  ( 0  0  1)  ( 0  0 -1)

  (-1  0  0)  (-1  0  0)  (-1  0  0)  (-1  0  0)
  ( 0  1  0)  ( 0  1  0)  ( 0 -1  0)  ( 0 -1  0)
  ( 0  0  1)  ( 0  0 -1)  ( 0  0  1)  ( 0  0 -1)

64 k-points: 8 x 8 x 1 Monkhorst-Pack grid
10 k-points in the irreducible part of the Brillouin zone
       k-points in crystal coordinates                weights
   0:     0.06250000    0.06250000    0.00000000          4/64
   1:     0.18750000    0.06250000    0.00000000          8/64
   2:     0.18750000    0.18750000    0.00000000          4/64
   3:     0.31250000    0.06250000    0.00000000          8/64
   4:     0.31250000    0.18750000    0.00000000          8/64
   5:     0.31250000    0.31250000    0.00000000          4/64
   6:     0.43750000    0.06250000    0.00000000          8/64
   7:     0.43750000    0.18750000    0.00000000          8/64
   8:     0.43750000    0.31250000    0.00000000          8/64
   9:     0.43750000    0.43750000    0.00000000          4/64

Wave functions: Plane wave expansion
  Cutoff energy: 400.000 eV
  Number of coefficients (min, max): 15874, 15912
  Pulay-stress correction: 0.000000 eV/Ang^3 (de/decut=0.000000)
  Using Numpy's FFT
  ScaLapack parameters: grid=1x1, blocksize=None
  Wavefunction extrapolation:
    Improved wavefunction reuse through dual PAW basis 

Occupation numbers: Fermi-Dirac:
  width: 0.1000  # eV
 

Eigensolver
   Davidson(niter=2) 

Densities:
  Coarse grid: 35*35*49 grid
  Fine grid: 70*70*98 grid
  Total Charge: 0.000000 

Density mixing:
  Method: separate
  Backend: pulay
  Linear mixing parameter: 0.05
  old densities: 5
  Damping of long wavelength oscillations: 50 

Hamiltonian:
  XC and Coulomb potentials evaluated on a 70*70*98 grid
  Using the LDA Exchange-Correlation functional
  External potential:
    NoExternalPotential
 

Memory estimate:
  Process memory now: 1042.03 MiB
  Calculator: 207.03 MiB
    Density: 27.45 MiB
      Arrays: 11.91 MiB
      Localized functions: 10.97 MiB
      Mixer: 4.58 MiB
    Hamiltonian: 8.01 MiB
      Arrays: 7.79 MiB
      XC: 0.00 MiB
      Poisson: 0.00 MiB
      vbar: 0.22 MiB
    Wavefunctions: 171.57 MiB
      Arrays psit_nG: 133.54 MiB
      Eigensolver: 15.03 MiB
      Projections: 1.31 MiB
      Projectors: 16.97 MiB
      PW-descriptor: 4.72 MiB

Total number of cores used: 1

Number of atoms: 12
Number of atomic orbitals: 84
Number of bands in calculation: 55
Number of valence electrons: 84
Bands to converge: occupied

... initialized

Initializing position-dependent things.

Density initialized from atomic densities
Creating initial wave functions:
  55 bands from LCAO basis set

      .--------------------.  
     /|                    |  
    / |                    |  
   /  |                    |  
  /   |                    |  
 *    |                    |  
 |    |                    |  
 |  Na|       Na           |  
 |    |                    |  
 |    |   Na        Na     |  
 Na   |     Na             |  
 |    | Na        Na       |  
 |    |                    |  
 |  Na|       Na           |  
 |    |                    |  
 Na   .-----Na-------------.  
 |   /                    /   
 |  /                    /    
 | /                    /     
 |/                    /      
 *--------------------*       

Atomic positions and initial magnetic moments

Positions:
   0 Na     0.000000    0.000000    4.000000    ( 0.0000,  0.0000,  0.0000)
   1 Na     4.230000    0.000000    4.000000    ( 0.0000,  0.0000,  0.0000)
   2 Na     0.000000    4.230000    4.000000    ( 0.0000,  0.0000,  0.0000)
   3 Na     4.230000    4.230000    4.000000    ( 0.0000,  0.0000,  0.0000)
   4 Na     2.115000    2.115000    6.115000    ( 0.0000,  0.0000,  0.0000)
   5 Na     6.345000    2.115000    6.115000    ( 0.0000,  0.0000,  0.0000)
   6 Na     2.115000    6.345000    6.115000    ( 0.0000,  0.0000,  0.0000)
   7 Na     6.345000    6.345000    6.115000    ( 0.0000,  0.0000,  0.0000)
   8 Na     0.000000    0.000000    8.230000    ( 0.0000,  0.0000,  0.0000)
   9 Na     4.230000    0.000000    8.230000    ( 0.0000,  0.0000,  0.0000)
  10 Na     0.000000    4.230000    8.230000    ( 0.0000,  0.0000,  0.0000)
  11 Na     4.230000    4.230000    8.230000    ( 0.0000,  0.0000,  0.0000)

Unit cell:
           periodic     x           y           z      points  spacing
  1. axis:    yes    8.460000    0.000000    0.000000    35     0.2417
  2. axis:    yes    0.000000    8.460000    0.000000    35     0.2417
  3. axis:    no     0.000000    0.000000   12.230000    49     0.2496

  Lengths:   8.460000   8.460000  12.230000
  Angles:   90.000000  90.000000  90.000000

Effective grid spacing dv^(1/3) = 0.2443

     iter     time        total  log10-change:
                         energy   eigst   dens
iter:   1 00:02:00   -15.429575
iter:   2 00:02:04   -15.388605   -1.30  -1.45
iter:   3 00:02:09   -15.175948   -1.80  -1.50
iter:   4 00:02:13   -15.176536   -2.45  -1.81
iter:   5 00:02:18   -15.175414c  -2.60  -1.83
iter:   6 00:02:22   -15.162675c  -3.30  -2.32
iter:   7 00:02:27   -15.163036c  -3.90  -2.89
iter:   8 00:02:31   -15.159909c  -4.35  -2.89
iter:   9 00:02:36   -15.155870c  -3.84  -3.01
iter:  10 00:02:40   -15.155927c  -5.13  -3.34
iter:  11 00:02:45   -15.156082c  -5.44  -3.45
iter:  12 00:02:49   -15.156127c  -5.88  -3.46
iter:  13 00:02:54   -15.155979c  -5.15  -3.75
iter:  14 00:02:58   -15.155980c  -6.66  -4.33c
iter:  15 00:03:03   -15.155983c  -7.22  -4.62c
iter:  16 00:03:07   -15.155984c  -7.81c -4.67c

Converged after 16 iterations.

Dipole moment: (-0.000000, -0.000000, -0.000000) |e|*Ang

Energy contributions relative to reference atoms: (reference = -52784.502531)

Kinetic:         +4.431542
Potential:       -4.924028
External:        +0.000000
XC:             -14.075065
Entropy (-ST):   -0.210347
Local:           -0.483259
SIC:             +0.000000
--------------------------
Free energy:    -15.261158
Extrapolated:   -15.155984

Showing only first 2 kpts
 Kpt  Band  Eigenvalues  Occupancy
  0    40     -1.45790    1.92460
  0    41     -1.45790    1.92460
  0    42     -0.92879    0.22782
  0    43     -0.56931    0.00704

  1    40     -1.39343    1.86107
  1    41     -1.02199    0.49224
  1    42     -0.88502    0.15325
  1    43     -0.86436    0.12645


Fermi level: -1.13393

No gap
No difference between direct/indirect transitions
Timing:                              incl.     excl.
-----------------------------------------------------------
Hamiltonian:                         0.091     0.003   0.0% |
 Atomic:                             0.036     0.000   0.0% |
  XC Correction:                     0.036     0.036   0.0% |
 Calculate atomic Hamiltonians:      0.021     0.021   0.0% |
 Communicate:                        0.000     0.000   0.0% |
 Initialize Hamiltonian:             0.000     0.000   0.0% |
 Poisson:                            0.001     0.001   0.0% |
 XC 3D grid:                         0.029     0.029   0.0% |
LCAO initialization:                13.630     0.007   0.0% |
 LCAO eigensolver:                   0.117     0.000   0.0% |
  Calculate projections:             0.002     0.002   0.0% |
  DenseAtomicCorrection:             0.009     0.009   0.0% |
  Distribute overlap matrix:         0.000     0.000   0.0% |
  Orbital Layouts:                   0.017     0.017   0.0% |
  Potential matrix:                  0.079     0.079   0.1% |
  Sum over cells:                    0.010     0.010   0.0% |
 LCAO to grid:                      13.413    13.413  15.6% |-----|
 Set positions (LCAO WFS):           0.092     0.016   0.0% |
  Basic WFS set positions:           0.001     0.001   0.0% |
  Basis functions set positions:     0.000     0.000   0.0% |
  P tci:                             0.059     0.059   0.1% |
  ST tci:                            0.014     0.014   0.0% |
  mktci:                             0.002     0.002   0.0% |
PWDescriptor:                        0.010     0.010   0.0% |
SCF-cycle:                          71.862     0.011   0.0% |
 Davidson:                          65.133     8.960  10.4% |---|
  Apply H:                          10.593    10.424  12.1% |----|
   HMM T:                            0.169     0.169   0.2% |
  Subspace diag:                    13.690     0.010   0.0% |
   calc_h_matrix:                   11.837     1.327   1.5% ||
    Apply H:                        10.511    10.351  12.0% |----|
     HMM T:                          0.160     0.160   0.2% |
   diagonalize:                      0.111     0.111   0.1% |
   rotate_psi:                       1.731     1.731   2.0% ||
  calc. matrices:                   27.705     6.729   7.8% |--|
   Apply H:                         20.977    20.646  24.0% |---------|
    HMM T:                           0.330     0.330   0.4% |
  diagonalize:                       0.919     0.919   1.1% |
  rotate_psi:                        3.265     3.265   3.8% |-|
 Density:                            5.276     0.000   0.0% |
  Atomic density matrices:           0.031     0.031   0.0% |
  Mix:                               0.422     0.422   0.5% |
  Multipole moments:                 0.001     0.001   0.0% |
  Pseudo density:                    4.822     4.763   5.5% |-|
   Symmetrize density:               0.059     0.059   0.1% |
 Hamiltonian:                        1.237     0.018   0.0% |
  Atomic:                            0.562     0.006   0.0% |
   XC Correction:                    0.556     0.556   0.6% |
  Calculate atomic Hamiltonians:     0.320     0.320   0.4% |
  Communicate:                       0.000     0.000   0.0% |
  Poisson:                           0.008     0.008   0.0% |
  XC 3D grid:                        0.330     0.330   0.4% |
 Orthonormalize:                     0.205     0.001   0.0% |
  calc_s_matrix:                     0.043     0.043   0.0% |
  inverse-cholesky:                  0.002     0.002   0.0% |
  projections:                       0.103     0.103   0.1% |
  rotate_psi_s:                      0.056     0.056   0.1% |
Set symmetry:                        0.001     0.001   0.0% |
Other:                               0.457     0.457   0.5% |
-----------------------------------------------------------
Total:                                        86.051 100.0%

Memory usage: 1.07 GiB
Date: Wed Jan 21 00:03:07 2026
